vectorbased
M 0.0 nn 5 x 100 y 100 z 0
M 0.0 prop Propagation/UnderwaterPropagation ant Antenna/OmniAntenna
s 0.087020058 _2_ MAC  --- 0 UnderwaterRmac 40 [0 0 0 0] [energy 10000.000000 ei 0.000 es 0.000 et 0.000 er 0.000] ------- [0:0 0:0 0 0] 
s 0.194380977 _0_ MAC  --- 0 UnderwaterRmac 40 [0 0 0 0] [energy 9999.996967 ei 0.001 es 0.000 et 0.000 er 0.002] ------- [0:0 0:0 0 0] 
s 0.350314577 _4_ MAC  --- 0 UnderwaterRmac 40 [0 0 0 0] [energy 9999.993912 ei 0.002 es 0.000 et 0.000 er 0.004] ------- [0:0 0:0 0 0] 
s 0.505366299 _1_ MAC  --- 0 UnderwaterRmac 40 [0 0 0 0] [energy 9999.990493 ei 0.004 es 0.000 et 0.000 er 0.006] ------- [0:0 0:0 0 0] 
s 0.826051373 _3_ MAC  --- 0 UnderwaterRmac 40 [0 0 0 0] [energy 9999.987283 ei 0.005 es 0.000 et 0.000 er 0.008] ------- [0:0 0:0 0 0] 
N -t 1.000000 -n 0 -e 9999.979488
N -t 1.000000 -n 1 -e 9999.979488
N -t 1.000000 -n 2 -e 9999.979488
N -t 1.000000 -n 3 -e 9999.979488
N -t 1.000000 -n 4 -e 9999.979488
s 1.598343690 _0_ MAC  --- 0 UnderwaterRmac 40 [0 0 0 0] [energy 9999.979488 ei 0.010 es 0.000 et 0.003 er 0.008] ------- [0:0 0:0 0 2] 
s 1.696078780 _3_ MAC  --- 0 UnderwaterRmac 40 [0 0 0 0] [energy 9999.971409 ei 0.016 es 0.000 et 0.003 er 0.009] ------- [0:0 0:0 0 2] 
s 1.712532305 _4_ MAC  --- 0 UnderwaterRmac 40 [0 0 0 0] [energy 9999.971209 ei 0.016 es 0.000 et 0.003 er 0.009] ------- [0:0 0:0 0 0] 
s 1.778345000 _2_ MAC  --- 0 UnderwaterRmac 40 [0 0 0 0] [energy 9999.966290 ei 0.017 es 0.000 et 0.003 er 0.013] ------- [0:0 0:0 0 4] 
s 1.817456788 _0_ MAC  --- 0 UnderwaterRmac 40 [0 0 0 0] [energy 9999.962726 ei 0.018 es 0.000 et 0.006 er 0.013] ------- [0:0 0:0 0 4] 
s 1.842441352 _4_ MAC  --- 0 UnderwaterRmac 40 [0 0 0 0] [energy 9999.962512 ei 0.018 es 0.000 et 0.006 er 0.013] ------- [0:0 0:0 0 1] 
s 1.867753554 _2_ MAC  --- 0 UnderwaterRmac 40 [0 0 0 0] [energy 9999.960487 ei 0.018 es 0.000 et 0.006 er 0.015] ------- [0:0 0:0 0 0] 
s 1.916920704 _1_ MAC  --- 0 UnderwaterRmac 40 [0 0 0 0] [energy 9999.957460 ei 0.019 es 0.000 et 0.003 er 0.021] ------- [0:0 0:0 0 2] 
s 1.948285649 _1_ MAC  --- 0 UnderwaterRmac 40 [0 0 0 0] [energy 9999.954215 ei 0.019 es 0.000 et 0.006 er 0.021] ------- [0:0 0:0 0 3] 
s 1.951365106 _4_ MAC  --- 0 UnderwaterRmac 40 [0 0 0 0] [energy 9999.954802 ei 0.019 es 0.000 et 0.010 er 0.017] ------- [0:0 0:0 0 3] 
N -t 2.000000 -n 0 -e 9999.948464
N -t 2.000000 -n 1 -e 9999.948464
N -t 2.000000 -n 2 -e 9999.948422
N -t 2.000000 -n 3 -e 9999.952911
N -t 2.000000 -n 4 -e 9999.947192
s 2.068919781 _0_ MAC  --- 0 UnderwaterRmac 40 [0 0 0 0] [energy 9999.948464 ei 0.019 es 0.000 et 0.010 er 0.023] ------- [0:0 0:0 0 3] 
s 2.087101257 _4_ MAC  --- 0 UnderwaterRmac 40 [0 0 0 0] [energy 9999.947192 ei 0.019 es 0.000 et 0.013 er 0.021] ------- [0:0 0:0 0 2] 
s 2.159226937 _1_ MAC  --- 0 UnderwaterRmac 40 [0 0 0 0] [energy 9999.943437 ei 0.021 es 0.000 et 0.010 er 0.027] ------- [0:0 0:0 0 0] 
s 2.176733746 _3_ MAC  --- 0 UnderwaterRmac 40 [0 0 0 0] [energy 9999.945848 ei 0.021 es 0.000 et 0.006 er 0.027] ------- [0:0 0:0 0 0] 
s 2.273374149 _0_ MAC  --- 0 UnderwaterRmac 40 [0 0 0 0] [energy 9999.937785 ei 0.021 es 0.000 et 0.013 er 0.028] ------- [0:0 0:0 0 1] 
s 2.376528936 _2_ MAC  --- 0 UnderwaterRmac 40 [0 0 0 0] [energy 9999.936176 ei 0.022 es 0.000 et 0.010 er 0.032] ------- [0:0 0:0 0 1] 
s 2.420852571 _3_ MAC  --- 0 UnderwaterRmac 40 [0 0 0 0] [energy 9999.934556 ei 0.023 es 0.000 et 0.010 er 0.033] ------- [0:0 0:0 0 4] 
N -t 3.000000 -n 0 -e 9999.922984
N -t 3.000000 -n 1 -e 9999.924256
N -t 3.000000 -n 2 -e 9999.924256
N -t 3.000000 -n 3 -e 9999.925583
N -t 3.000000 -n 4 -e 9999.922984
s 3.029677450 _1_ MAC  --- 0 UnderwaterRmac 40 [0 0 0 0] [energy 9999.924256 ei 0.029 es 0.000 et 0.013 er 0.034] ------- [0:0 0:0 0 0] 
s 3.482851713 _4_ MAC  --- 0 UnderwaterRmac 40 [0 0 0 0] [energy 9999.920379 ei 0.030 es 0.000 et 0.016 er 0.034] ------- [0:0 0:0 0 0] 
s 3.542598270 _2_ MAC  --- 0 UnderwaterRmac 40 [0 0 0 0] [energy 9999.915203 ei 0.034 es 0.000 et 0.013 er 0.038] ------- [0:0 0:0 0 0] 
s 3.595326112 _3_ MAC  --- 0 UnderwaterRmac 40 [0 0 0 0] [energy 9999.914231 ei 0.035 es 0.000 et 0.013 er 0.038] ------- [0:0 0:0 0 0] 
s 3.938798495 _0_ MAC  --- 0 UnderwaterRmac 40 [0 0 0 0] [energy 9999.909391 ei 0.035 es 0.000 et 0.016 er 0.040] ------- [0:0 0:0 0 0] 
N -t 4.000000 -n 0 -e 9999.902472
N -t 4.000000 -n 1 -e 9999.903744
N -t 4.000000 -n 2 -e 9999.903744
N -t 4.000000 -n 3 -e 9999.905071
N -t 4.000000 -n 4 -e 9999.902472
s 4.550726654 _0_ MAC  --- 0 UnderwaterRmac 40 [0 0 0 0] [energy 9999.902472 ei 0.039 es 0.000 et 0.019 er 0.040] ------- [0:0 0:0 0 2] 
s 4.634005240 _2_ MAC  --- 0 UnderwaterRmac 40 [0 0 0 0] [energy 9999.896074 ei 0.044 es 0.000 et 0.016 er 0.044] ------- [0:0 0:0 0 3] 
s 4.645470526 _1_ MAC  --- 0 UnderwaterRmac 40 [0 0 0 0] [energy 9999.896241 ei 0.044 es 0.000 et 0.016 er 0.044] ------- [0:0 0:0 0 2] 
s 4.719546754 _1_ MAC  --- 0 UnderwaterRmac 40 [0 0 0 0] [energy 9999.890173 ei 0.045 es 0.000 et 0.019 er 0.046] ------- [0:0 0:0 0 3] 
s 4.730313707 _2_ MAC  --- 0 UnderwaterRmac 40 [0 0 0 0] [energy 9999.890059 ei 0.045 es 0.000 et 0.019 er 0.046] ------- [0:0 0:0 0 1] 
s 4.748311493 _3_ MAC  --- 0 UnderwaterRmac 40 [0 0 0 0] [energy 9999.891870 ei 0.046 es 0.000 et 0.016 er 0.046] ------- [0:0 0:0 0 4] 
s 4.786525449 _4_ MAC  --- 0 UnderwaterRmac 40 [0 0 0 0] [energy 9999.885469 ei 0.046 es 0.000 et 0.019 er 0.049] ------- [0:0 0:0 0 3] 
s 4.801821702 _4_ MAC  --- 0 UnderwaterRmac 40 [0 0 0 0] [energy 9999.882267 ei 0.046 es 0.000 et 0.022 er 0.049] ------- [0:0 0:0 0 0] 
s 4.815308705 _4_ MAC  --- 0 UnderwaterRmac 40 [0 0 0 0] [energy 9999.877081 ei 0.046 es 0.000 et 0.025 er 0.051] ------- [0:0 0:0 0 2] 
s 4.861689747 _0_ MAC  --- 0 UnderwaterRmac 40 [0 0 0 0] [energy 9999.875967 ei 0.047 es 0.000 et 0.022 er 0.055] ------- [0:0 0:0 0 1] 
s 4.936592012 _0_ MAC  --- 0 UnderwaterRmac 40 [0 0 0 0] [energy 9999.872783 ei 0.047 es 0.000 et 0.025 er 0.055] ------- [0:0 0:0 0 4] 
s 4.946252265 _0_ MAC  --- 0 UnderwaterRmac 40 [0 0 0 0] [energy 9999.868914 ei 0.048 es 0.000 et 0.029 er 0.055] ------- [0:0 0:0 0 3] 
s 4.985260901 _3_ MAC  --- 0 UnderwaterRmac 40 [0 0 0 0] [energy 9999.873570 ei 0.048 es 0.000 et 0.019 er 0.060] ------- [0:0 0:0 0 0] 
N -t 5.000000 -n 0 -e 9999.865208
N -t 5.000000 -n 1 -e 9999.869451
N -t 5.000000 -n 2 -e 9999.869024
N -t 5.000000 -n 3 -e 9999.870161
N -t 5.000000 -n 4 -e 9999.866548
s 5.104888596 _2_ MAC  --- 0 UnderwaterRmac 40 [0 0 0 0] [energy 9999.866942 ei 0.048 es 0.000 et 0.022 er 0.063] ------- [0:0 0:0 0 0] 
s 5.171589818 _1_ MAC  --- 0 UnderwaterRmac 40 [0 0 0 0] [energy 9999.864291 ei 0.050 es 0.000 et 0.022 er 0.064] ------- [0:0 0:0 0 4] 
s 5.176866675 _2_ MAC  --- 0 UnderwaterRmac 40 [0 0 0 0] [energy 9999.862959 ei 0.049 es 0.000 et 0.025 er 0.063] ------- [0:0 0:0 0 4] 
s 5.306246928 _3_ MAC  --- 0 UnderwaterRmac 40 [0 0 0 0] [energy 9999.862467 ei 0.050 es 0.000 et 0.022 er 0.065] ------- [0:0 0:0 0 2] 
s 5.393608668 _1_ MAC  --- 0 UnderwaterRmac 40 [0 0 0 0] [energy 9999.855605 ei 0.051 es 0.000 et 0.025 er 0.068] ------- [0:0 0:0 0 0] 
s 5.436279919 _3_ MAC  --- 0 UnderwaterRmac 40 [0 0 0 0] [energy 9999.855441 ei 0.052 es 0.000 et 0.025 er 0.067] ------- [0:0 0:0 0 1] 
N -t 6.000000 -n 0 -e 9999.842272
N -t 6.000000 -n 1 -e 9999.843971
N -t 6.000000 -n 2 -e 9999.843544
N -t 6.000000 -n 3 -e 9999.846529
N -t 6.000000 -n 4 -e 9999.843612
s 6.002590893 _0_ MAC  --- 0 UnderwaterRmac 40 [0 0 0 0] [energy 9999.842272 ei 0.058 es 0.000 et 0.032 er 0.068] ------- [0:0 0:0 0 0] 
s 6.223943887 _4_ MAC  --- 0 UnderwaterRmac 40 [0 0 0 0] [energy 9999.841290 ei 0.058 es 0.000 et 0.029 er 0.072] ------- [0:0 0:0 0 0] 
s 6.394086272 _1_ MAC  --- 0 UnderwaterRmac 40 [0 0 0 0] [energy 9999.837575 ei 0.060 es 0.000 et 0.029 er 0.074] ------- [0:0 0:0 0 0] 
s 6.633822466 _2_ MAC  --- 0 UnderwaterRmac 40 [0 0 0 0] [energy 9999.833644 ei 0.062 es 0.000 et 0.029 er 0.076] ------- [0:0 0:0 0 0] 
s 6.956979384 _3_ MAC  --- 0 UnderwaterRmac 40 [0 0 0 0] [energy 9999.832417 ei 0.064 es 0.000 et 0.029 er 0.075] ------- [0:0 0:0 0 0] 
N -t 7.000000 -n 0 -e 9999.821760
N -t 7.000000 -n 1 -e 9999.823459
N -t 7.000000 -n 2 -e 9999.823032
N -t 7.000000 -n 3 -e 9999.826017
N -t 7.000000 -n 4 -e 9999.824948
s 7.573874400 _4_ MAC  --- 0 UnderwaterRmac 40 [0 0 0 0] [energy 9999.822883 ei 0.068 es 0.000 et 0.032 er 0.078] ------- [0:0 0:0 0 1] 
s 7.673860788 _4_ MAC  --- 0 UnderwaterRmac 40 [0 0 0 0] [energy 9999.814194 ei 0.073 es 0.000 et 0.035 er 0.078] ------- [0:0 0:0 0 3] 
s 7.698816202 _1_ MAC  --- 0 UnderwaterRmac 40 [0 0 0 0] [energy 9999.815412 ei 0.074 es 0.000 et 0.032 er 0.079] ------- [0:0 0:0 0 4] 
s 7.723329950 _0_ MAC  --- 0 UnderwaterRmac 40 [0 0 0 0] [energy 9999.809029 ei 0.075 es 0.000 et 0.035 er 0.082] ------- [0:0 0:0 0 4] 
s 7.733739733 _2_ MAC  --- 0 UnderwaterRmac 40 [0 0 0 0] [energy 9999.812069 ei 0.075 es 0.000 et 0.032 er 0.082] ------- [0:0 0:0 0 0] 
s 7.795541973 _3_ MAC  --- 0 UnderwaterRmac 40 [0 0 0 0] [energy 9999.809058 ei 0.075 es 0.000 et 0.032 er 0.084] ------- [0:0 0:0 0 2] 
s 7.865655253 _1_ MAC  --- 0 UnderwaterRmac 40 [0 0 0 0] [energy 9999.802872 ei 0.076 es 0.000 et 0.035 er 0.087] ------- [0:0 0:0 0 2] 
s 7.918535095 _3_ MAC  --- 0 UnderwaterRmac 40 [0 0 0 0] [energy 9999.802881 ei 0.076 es 0.000 et 0.035 er 0.086] ------- [0:0 0:0 0 0] 
s 7.944829459 _0_ MAC  --- 0 UnderwaterRmac 40 [0 0 0 0] [energy 9999.796271 ei 0.077 es 0.000 et 0.038 er 0.089] ------- [0:0 0:0 0 3] 
N -t 8.000000 -n 0 -e 9999.792584
N -t 8.000000 -n 1 -e 9999.794283
N -t 8.000000 -n 2 -e 9999.796976
N -t 8.000000 -n 3 -e 9999.796841
N -t 8.000000 -n 4 -e 9999.793924
s 8.015157560 _4_ MAC  --- 0 UnderwaterRmac 40 [0 0 0 0] [energy 9999.793924 ei 0.077 es 0.000 et 0.038 er 0.091] ------- [0:0 0:0 0 0] 
s 8.043339890 _2_ MAC  --- 0 UnderwaterRmac 40 [0 0 0 0] [energy 9999.796976 ei 0.077 es 0.000 et 0.035 er 0.091] ------- [0:0 0:0 0 4] 
s 8.196500674 _2_ MAC  --- 0 UnderwaterRmac 40 [0 0 0 0] [energy 9999.791328 ei 0.078 es 0.000 et 0.038 er 0.093] ------- [0:0 0:0 0 3] 
s 8.217597760 _0_ MAC  --- 0 UnderwaterRmac 40 [0 0 0 0] [energy 9999.788140 ei 0.078 es 0.000 et 0.041 er 0.093] ------- [0:0 0:0 0 1] 
s 8.376338832 _3_ MAC  --- 0 UnderwaterRmac 40 [0 0 0 0] [energy 9999.788289 ei 0.079 es 0.000 et 0.038 er 0.094] ------- [0:0 0:0 0 4] 
s 8.402949091 _4_ MAC  --- 0 UnderwaterRmac 40 [0 0 0 0] [energy 9999.782636 ei 0.080 es 0.000 et 0.041 er 0.097] ------- [0:0 0:0 0 2] 
s 8.437656277 _3_ MAC  --- 0 UnderwaterRmac 40 [0 0 0 0] [energy 9999.783782 ei 0.081 es 0.000 et 0.041 er 0.094] ------- [0:0 0:0 0 1] 
s 8.438011516 _0_ MAC  --- 0 UnderwaterRmac 40 [0 0 0 0] [energy 9999.778061 ei 0.081 es 0.000 et 0.044 er 0.097] ------- [0:0 0:0 0 2] 
N -t 9.000000 -n 0 -e 9999.765256
N -t 9.000000 -n 1 -e 9999.769872
N -t 9.000000 -n 2 -e 9999.769648
N -t 9.000000 -n 3 -e 9999.770777
N -t 9.000000 -n 4 -e 9999.766596
s 9.231676807 _4_ MAC  --- 0 UnderwaterRmac 40 [0 0 0 0] [energy 9999.766596 ei 0.087 es 0.000 et 0.044 er 0.102] ------- [0:0 0:0 0 0] 
s 9.255473453 _2_ MAC  --- 0 UnderwaterRmac 40 [0 0 0 0] [energy 9999.769648 ei 0.087 es 0.000 et 0.041 er 0.102] ------- [0:0 0:0 0 0] 
s 9.268885360 _0_ MAC  --- 0 UnderwaterRmac 40 [0 0 0 0] [energy 9999.765256 ei 0.087 es 0.000 et 0.048 er 0.100] ------- [0:0 0:0 0 0] 
s 9.608526010 _1_ MAC  --- 0 UnderwaterRmac 40 [0 0 0 0] [energy 9999.761358 ei 0.090 es 0.000 et 0.038 er 0.111] ------- [0:0 0:0 0 0] 
s 9.723907354 _3_ MAC  --- 0 UnderwaterRmac 40 [0 0 0 0] [energy 9999.759620 ei 0.093 es 0.000 et 0.044 er 0.103] ------- [0:0 0:0 0 0] 
N -t 10.000000 -n 0 -e 9999.746592
N -t 10.000000 -n 1 -e 9999.749360
N -t 10.000000 -n 2 -e 9999.749136
N -t 10.000000 -n 3 -e 9999.752856
N -t 10.000000 -n 4 -e 9999.746084
s 10.515006920 _4_ MAC  --- 0 UnderwaterRmac 40 [0 0 0 0] [energy 9999.746084 ei 0.096 es 0.000 et 0.048 er 0.110] ------- [0:0 0:0 0 3] 
s 10.589890676 _0_ MAC  --- 0 UnderwaterRmac 40 [0 0 0 0] [energy 9999.739146 ei 0.102 es 0.000 et 0.051 er 0.108] ------- [0:0 0:0 0 1] 
s 10.611330689 _0_ MAC  --- 0 UnderwaterRmac 40 [0 0 0 0] [energy 9999.735677 ei 0.102 es 0.000 et 0.054 er 0.108] ------- [0:0 0:0 0 2] 
s 10.643018281 _1_ MAC  --- 0 UnderwaterRmac 40 [0 0 0 0] [energy 9999.737554 ei 0.103 es 0.000 et 0.041 er 0.119] ------- [0:0 0:0 0 0] 
s 10.961608643 _2_ MAC  --- 0 UnderwaterRmac 40 [0 0 0 0] [energy 9999.734899 ei 0.103 es 0.000 et 0.044 er 0.118] ------- [0:0 0:0 0 3] 
s 10.963205066 _4_ MAC  --- 0 UnderwaterRmac 40 [0 0 0 0] [energy 9999.730530 ei 0.103 es 0.000 et 0.051 er 0.116] ------- [0:0 0:0 0 1] 
N -t 11.000000 -n 0 -e 9999.724808
N -t 11.000000 -n 1 -e 9999.728817
N -t 11.000000 -n 2 -e 9999.728624
N -t 11.000000 -n 3 -e 9999.733616
N -t 11.000000 -n 4 -e 9999.724300
s 11.050353969 _1_ MAC  --- 0 UnderwaterRmac 40 [0 0 0 0] [energy 9999.726907 ei 0.106 es 0.000 et 0.044 er 0.122] ------- [0:0 0:0 0 4] 
s 11.071925674 _2_ MAC  --- 0 UnderwaterRmac 40 [0 0 0 0] [energy 9999.726615 ei 0.106 es 0.000 et 0.048 er 0.119] ------- [0:0 0:0 0 0] 
s 11.235377783 _2_ MAC  --- 0 UnderwaterRmac 40 [0 0 0 0] [energy 9999.720890 ei 0.107 es 0.000 et 0.051 er 0.121] ------- [0:0 0:0 0 1] 
s 11.257230801 _4_ MAC  --- 0 UnderwaterRmac 40 [0 0 0 0] [energy 9999.717508 ei 0.107 es 0.000 et 0.054 er 0.121] ------- [0:0 0:0 0 0] 
s 11.289192005 _2_ MAC  --- 0 UnderwaterRmac 40 [0 0 0 0] [energy 9999.716286 ei 0.109 es 0.000 et 0.054 er 0.121] ------- [0:0 0:0 0 4] 
s 11.347621173 _0_ MAC  --- 0 UnderwaterRmac 40 [0 0 0 0] [energy 9999.710513 ei 0.109 es 0.000 et 0.057 er 0.123] ------- [0:0 0:0 0 3] 
s 11.349442462 _1_ MAC  --- 0 UnderwaterRmac 40 [0 0 0 0] [energy 9999.713181 ei 0.109 es 0.000 et 0.048 er 0.130] ------- [0:0 0:0 0 3] 
s 11.382169020 _3_ MAC  --- 0 UnderwaterRmac 40 [0 0 0 0] [energy 9999.715304 ei 0.110 es 0.000 et 0.048 er 0.127] ------- [0:0 0:0 0 1] 
s 11.459312828 _1_ MAC  --- 0 UnderwaterRmac 40 [0 0 0 0] [energy 9999.705578 ei 0.110 es 0.000 et 0.051 er 0.134] ------- [0:0 0:0 0 2] 
N -t 12.000000 -n 0 -e 9999.695056
N -t 12.000000 -n 1 -e 9999.696552
N -t 12.000000 -n 2 -e 9999.696328
N -t 12.000000 -n 3 -e 9999.704102
N -t 12.000000 -n 4 -e 9999.695221
s 12.442907708 _0_ MAC  --- 0 UnderwaterRmac 40 [0 0 0 0] [energy 9999.695056 ei 0.116 es 0.000 et 0.060 er 0.129] ------- [0:0 0:0 0 0] 
s 12.458706434 _1_ MAC  --- 0 UnderwaterRmac 40 [0 0 0 0] [energy 9999.690127 ei 0.120 es 0.000 et 0.054 er 0.136] ------- [0:0 0:0 0 0] 
s 12.500891680 _2_ MAC  --- 0 UnderwaterRmac 40 [0 0 0 0] [energy 9999.687630 ei 0.121 es 0.000 et 0.057 er 0.135] ------- [0:0 0:0 0 0] 
s 12.722686931 _4_ MAC  --- 0 UnderwaterRmac 40 [0 0 0 0] [energy 9999.684140 ei 0.121 es 0.000 et 0.057 er 0.138] ------- [0:0 0:0 0 0] 
s 12.856503049 _3_ MAC  --- 0 UnderwaterRmac 40 [0 0 0 0] [energy 9999.688835 ei 0.124 es 0.000 et 0.051 er 0.137] ------- [0:0 0:0 0 0] 
N -t 13.000000 -n 0 -e 9999.674544
N -t 13.000000 -n 1 -e 9999.676040
N -t 13.000000 -n 2 -e 9999.675816
N -t 13.000000 -n 3 -e 9999.683590
N -t 13.000000 -n 4 -e 9999.674709
s 13.957148200 _3_ MAC  --- 0 UnderwaterRmac 40 [0 0 0 0] [energy 9999.683590 ei 0.126 es 0.000 et 0.054 er 0.137] ------- [0:0 0:0 0 0] 
N -t 14.000000 -n 0 -e 9999.662696
N -t 14.000000 -n 1 -e 9999.664192
N -t 14.000000 -n 2 -e 9999.663968
N -t 14.000000 -n 3 -e 9999.670470
N -t 14.000000 -n 4 -e 9999.664709
s 14.009703082 _2_ MAC  --- 0 UnderwaterRmac 40 [0 0 0 0] [energy 9999.663968 ei 0.136 es 0.000 et 0.060 er 0.140] ------- [0:0 0:0 0 0] 
s 14.025035636 _0_ MAC  --- 0 UnderwaterRmac 40 [0 0 0 0] [energy 9999.662696 ei 0.136 es 0.000 et 0.063 er 0.138] ------- [0:0 0:0 0 0] 
s 14.136519881 _1_ MAC  --- 0 UnderwaterRmac 40 [0 0 0 0] [energy 9999.659984 ei 0.136 es 0.000 et 0.057 er 0.147] ------- [0:0 0:0 0 0] 
s 14.171913465 _4_ MAC  --- 0 UnderwaterRmac 40 [0 0 0 0] [energy 9999.658467 ei 0.136 es 0.000 et 0.060 er 0.145] ------- [0:0 0:0 0 0] 
N -t 15.000000 -n 0 -e 9999.644032
N -t 15.000000 -n 1 -e 9999.645528
N -t 15.000000 -n 2 -e 9999.645304
N -t 15.000000 -n 3 -e 9999.654157
N -t 15.000000 -n 4 -e 9999.644197
s 17.869519116 _4_ MAC  --- 0 UnderwaterRmac 0 [0 0 0 0] [energy 9999.641197 ei 0.148 es 0.000 et 0.063 er 0.147] ------- [0:0 0:0 0 0] 
s 19.031674088 _0_ MAC  --- 0 UnderwaterRmac 40 [0 0 0 0] [energy 9999.639724 ei 0.149 es 0.000 et 0.067 er 0.144] ------- [0:0 0:0 0 3] 
s 19.816714614 _0_ MAC  --- 0 UnderwaterRmac 40 [0 0 0 0] [energy 9999.636556 ei 0.149 es 0.000 et 0.070 er 0.144] ------- [0:0 0:0 0 1] 
s 19.862269523 _0_ MAC  --- 0 UnderwaterRmac 40 [0 0 0 0] [energy 9999.633388 ei 0.149 es 0.000 et 0.073 er 0.144] ------- [0:0 0:0 0 2] 
s 20.381612699 _0_ MAC  --- 0 UnderwaterRmac 40 [0 0 0 0] [energy 9999.629220 ei 0.150 es 0.000 et 0.076 er 0.144] ------- [0:0 0:0 0 4] 
s 20.428812939 _4_ MAC  --- 0 UnderwaterRmac 480 [0 4000000 ffff0008 0] [energy 9999.636773 ei 0.150 es 0.000 et 0.064 er 0.149] ------- [4:0 4:255 0 0] 
r 20.517612939 _0_ MAC  --- 0 UnderwaterRmac 480 [0 4000000 ffff0008 0] [energy 9999.606776 ei 0.150 es 0.000 et 0.079 er 0.164] ------- [4:0 4:255 0 0] 
s 21.463220859 _0_ MAC  --- 0 UnderwaterRmac 40 [0 0 0 0] [energy 9999.606776 ei 0.150 es 0.000 et 0.079 er 0.164] ------- [0:0 0:0 0 4] 
s 25.957124876 _1_ MAC  --- 0 UnderwaterRmac 0 [0 0 0 0] [energy 9999.630524 ei 0.156 es 0.000 et 0.060 er 0.153] ------- [0:0 0:0 0 0] 
s 26.913521516 _3_ MAC  --- 0 UnderwaterRmac 0 [0 0 0 0] [energy 9999.640309 ei 0.157 es 0.000 et 0.057 er 0.145] ------- [0:0 0:0 0 0] 
s 27.031674088 _0_ MAC  --- 0 UnderwaterRmac 40 [0 0 0 0] [energy 9999.591263 ei 0.162 es 0.000 et 0.082 er 0.164] ------- [0:0 0:0 0 3] 
s 27.381612699 _0_ MAC  --- 0 UnderwaterRmac 40 [0 0 0 0] [energy 9999.588095 ei 0.162 es 0.000 et 0.086 er 0.164] ------- [0:0 0:0 0 4] 
s 27.862269523 _0_ MAC  --- 0 UnderwaterRmac 40 [0 0 0 0] [energy 9999.584927 ei 0.162 es 0.000 et 0.089 er 0.164] ------- [0:0 0:0 0 2] 
s 28.816714614 _0_ MAC  --- 0 UnderwaterRmac 40 [0 0 0 0] [energy 9999.580759 ei 0.163 es 0.000 et 0.092 er 0.164] ------- [0:0 0:0 0 1] 
s 28.885117676 _1_ MAC  --- 1 UnderwaterRmac 480 [0 1000000 ffff0008 0] [energy 9999.624252 ei 0.158 es 0.000 et 0.061 er 0.157] ------- [1:0 1:255 0 0] 
r 28.943917676 _0_ MAC  --- 1 UnderwaterRmac 480 [0 1000000 ffff0008 0] [energy 9999.558315 ei 0.163 es 0.000 et 0.095 er 0.184] ------- [1:0 1:255 0 0] 
s 29.905473843 _0_ MAC  --- 0 UnderwaterRmac 40 [0 0 0 0] [energy 9999.558315 ei 0.163 es 0.000 et 0.095 er 0.184] ------- [0:0 0:0 0 1] 
s 31.918321996 _3_ MAC  --- 0 UnderwaterRmac 0 [0 0 0 0] [energy 9999.632933 ei 0.162 es 0.000 et 0.058 er 0.147] ------- [0:0 0:0 0 0] 
s 32.957124876 _1_ MAC  --- 0 UnderwaterRmac 0 [0 0 0 0] [energy 9999.585660 ei 0.163 es 0.000 et 0.093 er 0.159] ------- [0:0 0:0 0 0] 
s 33.381612699 _0_ MAC  --- 0 UnderwaterRmac 40 [0 0 0 0] [energy 9999.550579 ei 0.167 es 0.000 et 0.098 er 0.184] ------- [0:0 0:0 0 4] 
s 33.816714614 _0_ MAC  --- 0 UnderwaterRmac 40 [0 0 0 0] [energy 9999.547411 ei 0.167 es 0.000 et 0.101 er 0.184] ------- [0:0 0:0 0 1] 
s 33.862269523 _0_ MAC  --- 0 UnderwaterRmac 40 [0 0 0 0] [energy 9999.544243 ei 0.167 es 0.000 et 0.105 er 0.184] ------- [0:0 0:0 0 2] 
s 34.031674088 _0_ MAC  --- 0 UnderwaterRmac 40 [0 0 0 0] [energy 9999.540075 ei 0.168 es 0.000 et 0.108 er 0.184] ------- [0:0 0:0 0 3] 
s 34.058874328 _3_ MAC  --- 2 UnderwaterRmac 480 [0 3000000 ffff0008 0] [energy 9999.628509 ei 0.164 es 0.000 et 0.058 er 0.149] ------- [3:0 3:255 0 0] 
r 34.127674328 _0_ MAC  --- 2 UnderwaterRmac 480 [0 3000000 ffff0008 0] [energy 9999.517631 ei 0.168 es 0.000 et 0.111 er 0.204] ------- [3:0 3:255 0 0] 
s 35.113282248 _0_ MAC  --- 0 UnderwaterRmac 40 [0 0 0 0] [energy 9999.517631 ei 0.168 es 0.000 et 0.111 er 0.204] ------- [0:0 0:0 0 3] 
s 35.942723436 _1_ MAC  --- 0 UnderwaterRmac 0 [0 0 0 0] [energy 9999.578436 ei 0.166 es 0.000 et 0.093 er 0.163] ------- [0:0 0:0 0 0] 
s 36.898321996 _4_ MAC  --- 0 UnderwaterRmac 0 [0 0 0 0] [energy 9999.582557 ei 0.167 es 0.000 et 0.096 er 0.155] ------- [0:0 0:0 0 0] 
s 37.031674088 _0_ MAC  --- 0 UnderwaterRmac 40 [0 0 0 0] [energy 9999.509617 ei 0.172 es 0.000 et 0.114 er 0.204] ------- [0:0 0:0 0 3] 
s 37.816714614 _0_ MAC  --- 0 UnderwaterRmac 40 [0 0 0 0] [energy 9999.506449 ei 0.172 es 0.000 et 0.117 er 0.204] ------- [0:0 0:0 0 1] 
s 37.862269523 _0_ MAC  --- 0 UnderwaterRmac 40 [0 0 0 0] [energy 9999.503281 ei 0.172 es 0.000 et 0.120 er 0.204] ------- [0:0 0:0 0 2] 
s 38.381612699 _0_ MAC  --- 0 UnderwaterRmac 40 [0 0 0 0] [energy 9999.499113 ei 0.173 es 0.000 et 0.124 er 0.204] ------- [0:0 0:0 0 4] 
s 38.428812939 _4_ MAC  --- 4 UnderwaterRmac 480 [0 4000000 ffff0008 0] [energy 9999.579133 ei 0.168 es 0.000 et 0.097 er 0.157] ------- [4:0 4:255 0 0] 
r 38.517612939 _0_ MAC  --- 4 UnderwaterRmac 480 [0 4000000 ffff0008 0] [energy 9999.476669 ei 0.173 es 0.000 et 0.127 er 0.223] ------- [4:0 4:255 0 0] 
s 39.420016539 _0_ MAC  --- 0 UnderwaterRmac 40 [0 0 0 0] [energy 9999.476669 ei 0.173 es 0.000 et 0.127 er 0.223] ------- [0:0 0:0 0 4] 
s 39.918721036 _1_ MAC  --- 0 UnderwaterRmac 0 [0 0 0 0] [energy 9999.571212 ei 0.168 es 0.000 et 0.094 er 0.166] ------- [0:0 0:0 0 0] 
s 40.918321996 _3_ MAC  --- 0 UnderwaterRmac 0 [0 0 0 0] [energy 9999.586141 ei 0.171 es 0.000 et 0.090 er 0.153] ------- [0:0 0:0 0 0] 
s 41.031674088 _0_ MAC  --- 0 UnderwaterRmac 40 [0 0 0 0] [energy 9999.465588 ei 0.180 es 0.000 et 0.130 er 0.224] ------- [0:0 0:0 0 3] 
s 41.381612699 _0_ MAC  --- 0 UnderwaterRmac 40 [0 0 0 0] [energy 9999.462420 ei 0.180 es 0.000 et 0.133 er 0.224] ------- [0:0 0:0 0 4] 
s 41.862269523 _0_ MAC  --- 0 UnderwaterRmac 40 [0 0 0 0] [energy 9999.459252 ei 0.180 es 0.000 et 0.136 er 0.224] ------- [0:0 0:0 0 2] 
s 42.816714614 _0_ MAC  --- 0 UnderwaterRmac 40 [0 0 0 0] [energy 9999.455084 ei 0.181 es 0.000 et 0.139 er 0.224] ------- [0:0 0:0 0 1] 
s 42.885117676 _1_ MAC  --- 3 UnderwaterRmac 480 [0 1000000 ffff0008 0] [energy 9999.563948 ei 0.171 es 0.000 et 0.095 er 0.170] ------- [1:0 1:255 0 0] 
r 42.943917676 _0_ MAC  --- 3 UnderwaterRmac 480 [0 1000000 ffff0008 0] [energy 9999.432640 ei 0.181 es 0.000 et 0.143 er 0.243] ------- [1:0 1:255 0 0] 
s 43.881471443 _0_ MAC  --- 0 UnderwaterRmac 40 [0 0 0 0] [energy 9999.432640 ei 0.181 es 0.000 et 0.143 er 0.243] ------- [0:0 0:0 0 1] 
s 44.937922956 _1_ MAC  --- 0 UnderwaterRmac 0 [0 0 0 0] [energy 9999.527356 ei 0.174 es 0.000 et 0.127 er 0.172] ------- [0:0 0:0 0 0] 
s 45.956725836 _3_ MAC  --- 0 UnderwaterRmac 0 [0 0 0 0] [energy 9999.578765 ei 0.176 es 0.000 et 0.091 er 0.155] ------- [0:0 0:0 0 0] 
s 46.031674088 _0_ MAC  --- 0 UnderwaterRmac 40 [0 0 0 0] [energy 9999.425856 ei 0.184 es 0.000 et 0.146 er 0.244] ------- [0:0 0:0 0 3] 
s 46.381612699 _0_ MAC  --- 0 UnderwaterRmac 40 [0 0 0 0] [energy 9999.422688 ei 0.184 es 0.000 et 0.149 er 0.244] ------- [0:0 0:0 0 4] 
s 46.862269523 _0_ MAC  --- 0 UnderwaterRmac 40 [0 0 0 0] [energy 9999.419520 ei 0.184 es 0.000 et 0.152 er 0.244] ------- [0:0 0:0 0 2] 
s 47.816714614 _0_ MAC  --- 0 UnderwaterRmac 40 [0 0 0 0] [energy 9999.415352 ei 0.185 es 0.000 et 0.155 er 0.244] ------- [0:0 0:0 0 1] 
s 47.885117676 _1_ MAC  --- 5 UnderwaterRmac 480 [0 1000000 ffff0008 0] [energy 9999.521084 ei 0.176 es 0.000 et 0.127 er 0.176] ------- [1:0 1:255 0 0] 
r 47.943917676 _0_ MAC  --- 5 UnderwaterRmac 480 [0 1000000 ffff0008 0] [energy 9999.392908 ei 0.185 es 0.000 et 0.158 er 0.263] ------- [1:0 1:255 0 0] 
s 48.900673363 _0_ MAC  --- 0 UnderwaterRmac 40 [0 0 0 0] [energy 9999.392908 ei 0.185 es 0.000 et 0.158 er 0.263] ------- [0:0 0:0 0 1] 
s 50.903122476 _4_ MAC  --- 0 UnderwaterRmac 0 [0 0 0 0] [energy 9999.528917 ei 0.180 es 0.000 et 0.129 er 0.162] ------- [0:0 0:0 0 0] 
s 50.932723436 _3_ MAC  --- 0 UnderwaterRmac 0 [0 0 0 0] [energy 9999.571389 ei 0.181 es 0.000 et 0.091 er 0.157] ------- [0:0 0:0 0 0] 
s 52.031674088 _0_ MAC  --- 0 UnderwaterRmac 40 [0 0 0 0] [energy 9999.385172 ei 0.189 es 0.000 et 0.162 er 0.264] ------- [0:0 0:0 0 3] 
s 52.816714614 _0_ MAC  --- 0 UnderwaterRmac 40 [0 0 0 0] [energy 9999.382004 ei 0.189 es 0.000 et 0.165 er 0.264] ------- [0:0 0:0 0 1] 
s 52.862269523 _0_ MAC  --- 0 UnderwaterRmac 40 [0 0 0 0] [energy 9999.378836 ei 0.189 es 0.000 et 0.168 er 0.264] ------- [0:0 0:0 0 2] 
s 53.381612699 _0_ MAC  --- 0 UnderwaterRmac 40 [0 0 0 0] [energy 9999.374668 ei 0.190 es 0.000 et 0.171 er 0.264] ------- [0:0 0:0 0 4] 
s 53.428812939 _4_ MAC  --- 8 UnderwaterRmac 480 [0 4000000 ffff0008 0] [energy 9999.524493 ei 0.182 es 0.000 et 0.129 er 0.164] ------- [4:0 4:255 0 0] 
r 53.517612939 _0_ MAC  --- 8 UnderwaterRmac 480 [0 4000000 ffff0008 0] [energy 9999.352224 ei 0.190 es 0.000 et 0.174 er 0.283] ------- [4:0 4:255 0 0] 
s 54.400814619 _0_ MAC  --- 0 UnderwaterRmac 40 [0 0 0 0] [energy 9999.352224 ei 0.190 es 0.000 et 0.174 er 0.283] ------- [0:0 0:0 0 4] 
s 55.927922956 _3_ MAC  --- 0 UnderwaterRmac 0 [0 0 0 0] [energy 9999.564013 ei 0.186 es 0.000 et 0.092 er 0.158] ------- [0:0 0:0 0 0] 
s 57.381612699 _0_ MAC  --- 0 UnderwaterRmac 40 [0 0 0 0] [energy 9999.340643 ei 0.198 es 0.000 et 0.177 er 0.283] ------- [0:0 0:0 0 4] 
s 57.816714614 _0_ MAC  --- 0 UnderwaterRmac 40 [0 0 0 0] [energy 9999.337475 ei 0.198 es 0.000 et 0.181 er 0.283] ------- [0:0 0:0 0 1] 
s 57.862269523 _0_ MAC  --- 0 UnderwaterRmac 40 [0 0 0 0] [energy 9999.334307 ei 0.198 es 0.000 et 0.184 er 0.283] ------- [0:0 0:0 0 2] 
s 58.031674088 _0_ MAC  --- 0 UnderwaterRmac 40 [0 0 0 0] [energy 9999.330139 ei 0.199 es 0.000 et 0.187 er 0.283] ------- [0:0 0:0 0 3] 
s 58.058874328 _3_ MAC  --- 6 UnderwaterRmac 480 [0 3000000 ffff0008 0] [energy 9999.559589 ei 0.188 es 0.000 et 0.092 er 0.160] ------- [3:0 3:255 0 0] 
r 58.127674328 _0_ MAC  --- 6 UnderwaterRmac 480 [0 3000000 ffff0008 0] [energy 9999.307695 ei 0.199 es 0.000 et 0.190 er 0.303] ------- [3:0 3:255 0 0] 
s 59.065277448 _0_ MAC  --- 0 UnderwaterRmac 40 [0 0 0 0] [energy 9999.307695 ei 0.199 es 0.000 et 0.190 er 0.303] ------- [0:0 0:0 0 3] 
s 60.882852449 _2_ MAC  --- 0 UnderwaterRmac 0 [0 0 0 0] [energy 9999.520224 ei 0.188 es 0.000 et 0.063 er 0.228] ------- [0:0 0:0 0 0] 
s 60.951925356 _3_ MAC  --- 0 UnderwaterRmac 0 [0 0 0 0] [energy 9999.523069 ei 0.190 es 0.000 et 0.125 er 0.162] ------- [0:0 0:0 0 0] 
s 62.031674088 _0_ MAC  --- 0 UnderwaterRmac 40 [0 0 0 0] [energy 9999.299161 ei 0.204 es 0.000 et 0.193 er 0.303] ------- [0:0 0:0 0 3] 
s 62.381612699 _0_ MAC  --- 0 UnderwaterRmac 40 [0 0 0 0] [energy 9999.295993 ei 0.204 es 0.000 et 0.196 er 0.303] ------- [0:0 0:0 0 4] 
s 62.816714614 _0_ MAC  --- 0 UnderwaterRmac 40 [0 0 0 0] [energy 9999.292825 ei 0.204 es 0.000 et 0.200 er 0.303] ------- [0:0 0:0 0 1] 
s 62.862269523 _0_ MAC  --- 0 UnderwaterRmac 40 [0 0 0 0] [energy 9999.289657 ei 0.204 es 0.000 et 0.203 er 0.303] ------- [0:0 0:0 0 2] 
s 62.896136430 _2_ MAC  --- 9 UnderwaterRmac 480 [0 2000000 ffff0008 0] [energy 9999.515492 ei 0.190 es 0.000 et 0.064 er 0.230] ------- [2:0 2:255 0 0] 
r 62.971603097 _0_ MAC  --- 9 UnderwaterRmac 480 [0 2000000 ffff0008 0] [energy 9999.267213 ei 0.204 es 0.000 et 0.206 er 0.323] ------- [2:0 2:255 0 0] 
s 63.948678163 _0_ MAC  --- 0 UnderwaterRmac 40 [0 0 0 0] [energy 9999.267213 ei 0.204 es 0.000 et 0.206 er 0.323] ------- [0:0 0:0 0 2] 
s 65.889519116 _3_ MAC  --- 0 UnderwaterRmac 0 [0 0 0 0] [energy 9999.515693 ei 0.195 es 0.000 et 0.125 er 0.164] ------- [0:0 0:0 0 0] 
s 67.381612699 _0_ MAC  --- 0 UnderwaterRmac 40 [0 0 0 0] [energy 9999.259785 ei 0.208 es 0.000 et 0.209 er 0.323] ------- [0:0 0:0 0 4] 
s 67.816714614 _0_ MAC  --- 0 UnderwaterRmac 40 [0 0 0 0] [energy 9999.256617 ei 0.208 es 0.000 et 0.212 er 0.323] ------- [0:0 0:0 0 1] 
s 67.862269523 _0_ MAC  --- 0 UnderwaterRmac 40 [0 0 0 0] [energy 9999.253449 ei 0.208 es 0.000 et 0.215 er 0.323] ------- [0:0 0:0 0 2] 
s 68.031674088 _0_ MAC  --- 0 UnderwaterRmac 40 [0 0 0 0] [energy 9999.249281 ei 0.209 es 0.000 et 0.219 er 0.323] ------- [0:0 0:0 0 3] 
s 68.058874328 _3_ MAC  --- 7 UnderwaterRmac 480 [0 3000000 ffff0008 0] [energy 9999.511269 ei 0.197 es 0.000 et 0.126 er 0.166] ------- [3:0 3:255 0 0] 
r 68.127674328 _0_ MAC  --- 7 UnderwaterRmac 480 [0 3000000 ffff0008 0] [energy 9999.226837 ei 0.209 es 0.000 et 0.222 er 0.342] ------- [3:0 3:255 0 0] 
s 69.050876008 _0_ MAC  --- 0 UnderwaterRmac 40 [0 0 0 0] [energy 9999.226837 ei 0.209 es 0.000 et 0.222 er 0.342] ------- [0:0 0:0 0 3] 
s 70.918321996 _3_ MAC  --- 0 UnderwaterRmac 0 [0 0 0 0] [energy 9999.474749 ei 0.199 es 0.000 et 0.158 er 0.168] ------- [0:0 0:0 0 0] 
s 72.381612699 _0_ MAC  --- 0 UnderwaterRmac 40 [0 0 0 0] [energy 9999.218756 ei 0.214 es 0.000 et 0.225 er 0.343] ------- [0:0 0:0 0 4] 
s 72.816714614 _0_ MAC  --- 0 UnderwaterRmac 40 [0 0 0 0] [energy 9999.215588 ei 0.214 es 0.000 et 0.228 er 0.343] ------- [0:0 0:0 0 1] 
s 72.862269523 _0_ MAC  --- 0 UnderwaterRmac 40 [0 0 0 0] [energy 9999.212420 ei 0.214 es 0.000 et 0.231 er 0.343] ------- [0:0 0:0 0 2] 
s 73.031674088 _0_ MAC  --- 0 UnderwaterRmac 40 [0 0 0 0] [energy 9999.208252 ei 0.215 es 0.000 et 0.234 er 0.343] ------- [0:0 0:0 0 3] 
s 73.058874328 _3_ MAC  --- 10 UnderwaterRmac 480 [0 3000000 ffff0008 0] [energy 9999.470325 ei 0.201 es 0.000 et 0.158 er 0.170] ------- [3:0 3:255 0 0] 
r 73.127674328 _0_ MAC  --- 10 UnderwaterRmac 480 [0 3000000 ffff0008 0] [energy 9999.185808 ei 0.215 es 0.000 et 0.238 er 0.362] ------- [3:0 3:255 0 0] 
s 74.113282248 _0_ MAC  --- 0 UnderwaterRmac 40 [0 0 0 0] [energy 9999.185808 ei 0.215 es 0.000 et 0.238 er 0.362] ------- [0:0 0:0 0 3] 
s 75.903920556 _3_ MAC  --- 0 UnderwaterRmac 0 [0 0 0 0] [energy 9999.433805 ei 0.204 es 0.000 et 0.191 er 0.172] ------- [0:0 0:0 0 0] 
s 77.381612699 _0_ MAC  --- 0 UnderwaterRmac 40 [0 0 0 0] [energy 9999.177102 ei 0.220 es 0.000 et 0.241 er 0.362] ------- [0:0 0:0 0 4] 
s 77.816714614 _0_ MAC  --- 0 UnderwaterRmac 40 [0 0 0 0] [energy 9999.173934 ei 0.220 es 0.000 et 0.244 er 0.362] ------- [0:0 0:0 0 1] 