n -t * -s 0  -x 0 -y 0 -Z 0 -z 10  -v circle -c green
n -t * -s 1  -x 0 -y -15 -Z 0 -z 10  -v circle -c green
n -t * -s 2  -x 0 -y 40 -Z 0 -z 10  -v circle -c green
n -t * -s 3  -x -30 -y 0 -Z 0 -z 10  -v circle -c green
n -t * -s 4  -x 60 -y 0 -Z 0 -z 10  -v circle -c green
V -t * -v 1.0a5 -a 0
W -t * -x 100 -y 100
A -t * -n 1 -p 0 -o 0xffffffff -c 31 -a 1
A -t * -h 1 -m 2147483647 -s 0
+ -t 0.087020058 -s 2 -d -1 -p UnderwaterRmac -e 40 -c 2 -a 0 -i 0 -k MAC 
- -t 0.087020058 -s 2 -d -1 -p UnderwaterRmac -e 40 -c 2 -a 0 -i 0 -k MAC
h -t 0.087020058 -s 2 -d -1 -p UnderwaterRmac -e 40 -c 2 -a 0 -i 0 -k MAC -R 1100.000000
v -t 0.087020058 -e sim_annotation 0.087020058 1 node 2 sendout packet (UnderwaterRmac) 0
+ -t 0.194380977 -s 0 -d -1 -p UnderwaterRmac -e 40 -c 2 -a 0 -i 0 -k MAC 
- -t 0.194380977 -s 0 -d -1 -p UnderwaterRmac -e 40 -c 2 -a 0 -i 0 -k MAC
h -t 0.194380977 -s 0 -d -1 -p UnderwaterRmac -e 40 -c 2 -a 0 -i 0 -k MAC -R 1100.000000
v -t 0.194380977 -e sim_annotation 0.194380977 2 node 0 sendout packet (UnderwaterRmac) 0
+ -t 0.350314577 -s 4 -d -1 -p UnderwaterRmac -e 40 -c 2 -a 0 -i 0 -k MAC 
- -t 0.350314577 -s 4 -d -1 -p UnderwaterRmac -e 40 -c 2 -a 0 -i 0 -k MAC
h -t 0.350314577 -s 4 -d -1 -p UnderwaterRmac -e 40 -c 2 -a 0 -i 0 -k MAC -R 1100.000000
v -t 0.350314577 -e sim_annotation 0.350314577 3 node 4 sendout packet (UnderwaterRmac) 0
+ -t 0.505366299 -s 1 -d -1 -p UnderwaterRmac -e 40 -c 2 -a 0 -i 0 -k MAC 
- -t 0.505366299 -s 1 -d -1 -p UnderwaterRmac -e 40 -c 2 -a 0 -i 0 -k MAC
h -t 0.505366299 -s 1 -d -1 -p UnderwaterRmac -e 40 -c 2 -a 0 -i 0 -k MAC -R 1100.000000
v -t 0.505366299 -e sim_annotation 0.505366299 4 node 1 sendout packet (UnderwaterRmac) 0
+ -t 0.826051373 -s 3 -d -1 -p UnderwaterRmac -e 40 -c 2 -a 0 -i 0 -k MAC 
- -t 0.826051373 -s 3 -d -1 -p UnderwaterRmac -e 40 -c 2 -a 0 -i 0 -k MAC
h -t 0.826051373 -s 3 -d -1 -p UnderwaterRmac -e 40 -c 2 -a 0 -i 0 -k MAC -R 1100.000000
v -t 0.826051373 -e sim_annotation 0.826051373 5 node 3 sendout packet (UnderwaterRmac) 0
+ -t 1.598343690 -s 0 -d 2 -p UnderwaterRmac -e 40 -c 2 -a 0 -i 0 -k MAC 
- -t 1.598343690 -s 0 -d 2 -p UnderwaterRmac -e 40 -c 2 -a 0 -i 0 -k MAC
h -t 1.598343690 -s 0 -d 2 -p UnderwaterRmac -e 40 -c 2 -a 0 -i 0 -k MAC -R 1100.000000
v -t 1.598343690 -e sim_annotation 1.598343690 6 node 0 sendout packet (UnderwaterRmac) 0
+ -t 1.696078780 -s 3 -d 2 -p UnderwaterRmac -e 40 -c 2 -a 0 -i 0 -k MAC 
- -t 1.696078780 -s 3 -d 2 -p UnderwaterRmac -e 40 -c 2 -a 0 -i 0 -k MAC
h -t 1.696078780 -s 3 -d 2 -p UnderwaterRmac -e 40 -c 2 -a 0 -i 0 -k MAC -R 1100.000000
v -t 1.696078780 -e sim_annotation 1.696078780 7 node 3 sendout packet (UnderwaterRmac) 0
+ -t 1.712532305 -s 4 -d 0 -p UnderwaterRmac -e 40 -c 2 -a 0 -i 0 -k MAC 
- -t 1.712532305 -s 4 -d 0 -p UnderwaterRmac -e 40 -c 2 -a 0 -i 0 -k MAC
h -t 1.712532305 -s 4 -d 0 -p UnderwaterRmac -e 40 -c 2 -a 0 -i 0 -k MAC -R 1100.000000
v -t 1.712532305 -e sim_annotation 1.712532305 8 node 4 sendout packet (UnderwaterRmac) 0
+ -t 1.778345000 -s 2 -d 4 -p UnderwaterRmac -e 40 -c 2 -a 0 -i 0 -k MAC 
- -t 1.778345000 -s 2 -d 4 -p UnderwaterRmac -e 40 -c 2 -a 0 -i 0 -k MAC
h -t 1.778345000 -s 2 -d 4 -p UnderwaterRmac -e 40 -c 2 -a 0 -i 0 -k MAC -R 1100.000000
v -t 1.778345000 -e sim_annotation 1.778345000 9 node 2 sendout packet (UnderwaterRmac) 0
+ -t 1.817456788 -s 0 -d 4 -p UnderwaterRmac -e 40 -c 2 -a 0 -i 0 -k MAC 
- -t 1.817456788 -s 0 -d 4 -p UnderwaterRmac -e 40 -c 2 -a 0 -i 0 -k MAC
h -t 1.817456788 -s 0 -d 4 -p UnderwaterRmac -e 40 -c 2 -a 0 -i 0 -k MAC -R 1100.000000
v -t 1.817456788 -e sim_annotation 1.817456788 10 node 0 sendout packet (UnderwaterRmac) 0
+ -t 1.842441352 -s 4 -d 1 -p UnderwaterRmac -e 40 -c 2 -a 0 -i 0 -k MAC 
- -t 1.842441352 -s 4 -d 1 -p UnderwaterRmac -e 40 -c 2 -a 0 -i 0 -k MAC
h -t 1.842441352 -s 4 -d 1 -p UnderwaterRmac -e 40 -c 2 -a 0 -i 0 -k MAC -R 1100.000000
v -t 1.842441352 -e sim_annotation 1.842441352 11 node 4 sendout packet (UnderwaterRmac) 0
+ -t 1.867753554 -s 2 -d 0 -p UnderwaterRmac -e 40 -c 2 -a 0 -i 0 -k MAC 
- -t 1.867753554 -s 2 -d 0 -p UnderwaterRmac -e 40 -c 2 -a 0 -i 0 -k MAC
h -t 1.867753554 -s 2 -d 0 -p UnderwaterRmac -e 40 -c 2 -a 0 -i 0 -k MAC -R 1100.000000
v -t 1.867753554 -e sim_annotation 1.867753554 12 node 2 sendout packet (UnderwaterRmac) 0
+ -t 1.916920704 -s 1 -d 2 -p UnderwaterRmac -e 40 -c 2 -a 0 -i 0 -k MAC 
- -t 1.916920704 -s 1 -d 2 -p UnderwaterRmac -e 40 -c 2 -a 0 -i 0 -k MAC
h -t 1.916920704 -s 1 -d 2 -p UnderwaterRmac -e 40 -c 2 -a 0 -i 0 -k MAC -R 1100.000000
v -t 1.916920704 -e sim_annotation 1.916920704 13 node 1 sendout packet (UnderwaterRmac) 0
+ -t 1.948285649 -s 1 -d 3 -p UnderwaterRmac -e 40 -c 2 -a 0 -i 0 -k MAC 
- -t 1.948285649 -s 1 -d 3 -p UnderwaterRmac -e 40 -c 2 -a 0 -i 0 -k MAC
h -t 1.948285649 -s 1 -d 3 -p UnderwaterRmac -e 40 -c 2 -a 0 -i 0 -k MAC -R 1100.000000
v -t 1.948285649 -e sim_annotation 1.948285649 14 node 1 sendout packet (UnderwaterRmac) 0
+ -t 1.951365106 -s 4 -d 3 -p UnderwaterRmac -e 40 -c 2 -a 0 -i 0 -k MAC 
- -t 1.951365106 -s 4 -d 3 -p UnderwaterRmac -e 40 -c 2 -a 0 -i 0 -k MAC
h -t 1.951365106 -s 4 -d 3 -p UnderwaterRmac -e 40 -c 2 -a 0 -i 0 -k MAC -R 1100.000000
v -t 1.951365106 -e sim_annotation 1.951365106 15 node 4 sendout packet (UnderwaterRmac) 0
+ -t 2.068919781 -s 0 -d 3 -p UnderwaterRmac -e 40 -c 2 -a 0 -i 0 -k MAC 
- -t 2.068919781 -s 0 -d 3 -p UnderwaterRmac -e 40 -c 2 -a 0 -i 0 -k MAC
h -t 2.068919781 -s 0 -d 3 -p UnderwaterRmac -e 40 -c 2 -a 0 -i 0 -k MAC -R 1100.000000
v -t 2.068919781 -e sim_annotation 2.068919781 16 node 0 sendout packet (UnderwaterRmac) 0
+ -t 2.087101257 -s 4 -d 2 -p UnderwaterRmac -e 40 -c 2 -a 0 -i 0 -k MAC 
- -t 2.087101257 -s 4 -d 2 -p UnderwaterRmac -e 40 -c 2 -a 0 -i 0 -k MAC
h -t 2.087101257 -s 4 -d 2 -p UnderwaterRmac -e 40 -c 2 -a 0 -i 0 -k MAC -R 1100.000000
v -t 2.087101257 -e sim_annotation 2.087101257 17 node 4 sendout packet (UnderwaterRmac) 0
+ -t 2.159226937 -s 1 -d 0 -p UnderwaterRmac -e 40 -c 2 -a 0 -i 0 -k MAC 
- -t 2.159226937 -s 1 -d 0 -p UnderwaterRmac -e 40 -c 2 -a 0 -i 0 -k MAC
h -t 2.159226937 -s 1 -d 0 -p UnderwaterRmac -e 40 -c 2 -a 0 -i 0 -k MAC -R 1100.000000
v -t 2.159226937 -e sim_annotation 2.159226937 18 node 1 sendout packet (UnderwaterRmac) 0
+ -t 2.176733746 -s 3 -d 0 -p UnderwaterRmac -e 40 -c 2 -a 0 -i 0 -k MAC 
- -t 2.176733746 -s 3 -d 0 -p UnderwaterRmac -e 40 -c 2 -a 0 -i 0 -k MAC
h -t 2.176733746 -s 3 -d 0 -p UnderwaterRmac -e 40 -c 2 -a 0 -i 0 -k MAC -R 1100.000000
v -t 2.176733746 -e sim_annotation 2.176733746 19 node 3 sendout packet (UnderwaterRmac) 0
+ -t 2.273374149 -s 0 -d 1 -p UnderwaterRmac -e 40 -c 2 -a 0 -i 0 -k MAC 
- -t 2.273374149 -s 0 -d 1 -p UnderwaterRmac -e 40 -c 2 -a 0 -i 0 -k MAC
h -t 2.273374149 -s 0 -d 1 -p UnderwaterRmac -e 40 -c 2 -a 0 -i 0 -k MAC -R 1100.000000
v -t 2.273374149 -e sim_annotation 2.273374149 20 node 0 sendout packet (UnderwaterRmac) 0
+ -t 2.376528936 -s 2 -d 1 -p UnderwaterRmac -e 40 -c 2 -a 0 -i 0 -k MAC 
- -t 2.376528936 -s 2 -d 1 -p UnderwaterRmac -e 40 -c 2 -a 0 -i 0 -k MAC
h -t 2.376528936 -s 2 -d 1 -p UnderwaterRmac -e 40 -c 2 -a 0 -i 0 -k MAC -R 1100.000000
v -t 2.376528936 -e sim_annotation 2.376528936 21 node 2 sendout packet (UnderwaterRmac) 0
+ -t 2.420852571 -s 3 -d 4 -p UnderwaterRmac -e 40 -c 2 -a 0 -i 0 -k MAC 
- -t 2.420852571 -s 3 -d 4 -p UnderwaterRmac -e 40 -c 2 -a 0 -i 0 -k MAC
h -t 2.420852571 -s 3 -d 4 -p UnderwaterRmac -e 40 -c 2 -a 0 -i 0 -k MAC -R 1100.000000
v -t 2.420852571 -e sim_annotation 2.420852571 22 node 3 sendout packet (UnderwaterRmac) 0
+ -t 3.029677450 -s 1 -d -1 -p UnderwaterRmac -e 40 -c 2 -a 0 -i 0 -k MAC 
- -t 3.029677450 -s 1 -d -1 -p UnderwaterRmac -e 40 -c 2 -a 0 -i 0 -k MAC
h -t 3.029677450 -s 1 -d -1 -p UnderwaterRmac -e 40 -c 2 -a 0 -i 0 -k MAC -R 1100.000000
v -t 3.029677450 -e sim_annotation 3.029677450 23 node 1 sendout packet (UnderwaterRmac) 0
+ -t 3.482851713 -s 4 -d -1 -p UnderwaterRmac -e 40 -c 2 -a 0 -i 0 -k MAC 
- -t 3.482851713 -s 4 -d -1 -p UnderwaterRmac -e 40 -c 2 -a 0 -i 0 -k MAC
h -t 3.482851713 -s 4 -d -1 -p UnderwaterRmac -e 40 -c 2 -a 0 -i 0 -k MAC -R 1100.000000
v -t 3.482851713 -e sim_annotation 3.482851713 24 node 4 sendout packet (UnderwaterRmac) 0
+ -t 3.542598270 -s 2 -d -1 -p UnderwaterRmac -e 40 -c 2 -a 0 -i 0 -k MAC 
- -t 3.542598270 -s 2 -d -1 -p UnderwaterRmac -e 40 -c 2 -a 0 -i 0 -k MAC
h -t 3.542598270 -s 2 -d -1 -p UnderwaterRmac -e 40 -c 2 -a 0 -i 0 -k MAC -R 1100.000000
v -t 3.542598270 -e sim_annotation 3.542598270 25 node 2 sendout packet (UnderwaterRmac) 0
+ -t 3.595326112 -s 3 -d -1 -p UnderwaterRmac -e 40 -c 2 -a 0 -i 0 -k MAC 
- -t 3.595326112 -s 3 -d -1 -p UnderwaterRmac -e 40 -c 2 -a 0 -i 0 -k MAC
h -t 3.595326112 -s 3 -d -1 -p UnderwaterRmac -e 40 -c 2 -a 0 -i 0 -k MAC -R 1100.000000
v -t 3.595326112 -e sim_annotation 3.595326112 26 node 3 sendout packet (UnderwaterRmac) 0
+ -t 3.938798495 -s 0 -d -1 -p UnderwaterRmac -e 40 -c 2 -a 0 -i 0 -k MAC 
- -t 3.938798495 -s 0 -d -1 -p UnderwaterRmac -e 40 -c 2 -a 0 -i 0 -k MAC
h -t 3.938798495 -s 0 -d -1 -p UnderwaterRmac -e 40 -c 2 -a 0 -i 0 -k MAC -R 1100.000000
v -t 3.938798495 -e sim_annotation 3.938798495 27 node 0 sendout packet (UnderwaterRmac) 0
+ -t 4.550726654 -s 0 -d 2 -p UnderwaterRmac -e 40 -c 2 -a 0 -i 0 -k MAC 
- -t 4.550726654 -s 0 -d 2 -p UnderwaterRmac -e 40 -c 2 -a 0 -i 0 -k MAC
h -t 4.550726654 -s 0 -d 2 -p UnderwaterRmac -e 40 -c 2 -a 0 -i 0 -k MAC -R 1100.000000
v -t 4.550726654 -e sim_annotation 4.550726654 28 node 0 sendout packet (UnderwaterRmac) 0
+ -t 4.634005240 -s 2 -d 3 -p UnderwaterRmac -e 40 -c 2 -a 0 -i 0 -k MAC 
- -t 4.634005240 -s 2 -d 3 -p UnderwaterRmac -e 40 -c 2 -a 0 -i 0 -k MAC
h -t 4.634005240 -s 2 -d 3 -p UnderwaterRmac -e 40 -c 2 -a 0 -i 0 -k MAC -R 1100.000000
v -t 4.634005240 -e sim_annotation 4.634005240 29 node 2 sendout packet (UnderwaterRmac) 0
+ -t 4.645470526 -s 1 -d 2 -p UnderwaterRmac -e 40 -c 2 -a 0 -i 0 -k MAC 
- -t 4.645470526 -s 1 -d 2 -p UnderwaterRmac -e 40 -c 2 -a 0 -i 0 -k MAC
h -t 4.645470526 -s 1 -d 2 -p UnderwaterRmac -e 40 -c 2 -a 0 -i 0 -k MAC -R 1100.000000
v -t 4.645470526 -e sim_annotation 4.645470526 30 node 1 sendout packet (UnderwaterRmac) 0
+ -t 4.719546754 -s 1 -d 3 -p UnderwaterRmac -e 40 -c 2 -a 0 -i 0 -k MAC 
- -t 4.719546754 -s 1 -d 3 -p UnderwaterRmac -e 40 -c 2 -a 0 -i 0 -k MAC
h -t 4.719546754 -s 1 -d 3 -p UnderwaterRmac -e 40 -c 2 -a 0 -i 0 -k MAC -R 1100.000000
v -t 4.719546754 -e sim_annotation 4.719546754 31 node 1 sendout packet (UnderwaterRmac) 0
+ -t 4.730313707 -s 2 -d 1 -p UnderwaterRmac -e 40 -c 2 -a 0 -i 0 -k MAC 
- -t 4.730313707 -s 2 -d 1 -p UnderwaterRmac -e 40 -c 2 -a 0 -i 0 -k MAC
h -t 4.730313707 -s 2 -d 1 -p UnderwaterRmac -e 40 -c 2 -a 0 -i 0 -k MAC -R 1100.000000
v -t 4.730313707 -e sim_annotation 4.730313707 32 node 2 sendout packet (UnderwaterRmac) 0
+ -t 4.748311493 -s 3 -d 4 -p UnderwaterRmac -e 40 -c 2 -a 0 -i 0 -k MAC 
- -t 4.748311493 -s 3 -d 4 -p UnderwaterRmac -e 40 -c 2 -a 0 -i 0 -k MAC
h -t 4.748311493 -s 3 -d 4 -p UnderwaterRmac -e 40 -c 2 -a 0 -i 0 -k MAC -R 1100.000000
v -t 4.748311493 -e sim_annotation 4.748311493 33 node 3 sendout packet (UnderwaterRmac) 0
+ -t 4.786525449 -s 4 -d 3 -p UnderwaterRmac -e 40 -c 2 -a 0 -i 0 -k MAC 
- -t 4.786525449 -s 4 -d 3 -p UnderwaterRmac -e 40 -c 2 -a 0 -i 0 -k MAC
h -t 4.786525449 -s 4 -d 3 -p UnderwaterRmac -e 40 -c 2 -a 0 -i 0 -k MAC -R 1100.000000
v -t 4.786525449 -e sim_annotation 4.786525449 34 node 4 sendout packet (UnderwaterRmac) 0
+ -t 4.801821702 -s 4 -d 0 -p UnderwaterRmac -e 40 -c 2 -a 0 -i 0 -k MAC 
- -t 4.801821702 -s 4 -d 0 -p UnderwaterRmac -e 40 -c 2 -a 0 -i 0 -k MAC
h -t 4.801821702 -s 4 -d 0 -p UnderwaterRmac -e 40 -c 2 -a 0 -i 0 -k MAC -R 1100.000000
v -t 4.801821702 -e sim_annotation 4.801821702 35 node 4 sendout packet (UnderwaterRmac) 0
+ -t 4.815308705 -s 4 -d 2 -p UnderwaterRmac -e 40 -c 2 -a 0 -i 0 -k MAC 
- -t 4.815308705 -s 4 -d 2 -p UnderwaterRmac -e 40 -c 2 -a 0 -i 0 -k MAC
h -t 4.815308705 -s 4 -d 2 -p UnderwaterRmac -e 40 -c 2 -a 0 -i 0 -k MAC -R 1100.000000
v -t 4.815308705 -e sim_annotation 4.815308705 36 node 4 sendout packet (UnderwaterRmac) 0
+ -t 4.861689747 -s 0 -d 1 -p UnderwaterRmac -e 40 -c 2 -a 0 -i 0 -k MAC 
- -t 4.861689747 -s 0 -d 1 -p UnderwaterRmac -e 40 -c 2 -a 0 -i 0 -k MAC
h -t 4.861689747 -s 0 -d 1 -p UnderwaterRmac -e 40 -c 2 -a 0 -i 0 -k MAC -R 1100.000000
v -t 4.861689747 -e sim_annotation 4.861689747 37 node 0 sendout packet (UnderwaterRmac) 0
+ -t 4.936592012 -s 0 -d 4 -p UnderwaterRmac -e 40 -c 2 -a 0 -i 0 -k MAC 
- -t 4.936592012 -s 0 -d 4 -p UnderwaterRmac -e 40 -c 2 -a 0 -i 0 -k MAC
h -t 4.936592012 -s 0 -d 4 -p UnderwaterRmac -e 40 -c 2 -a 0 -i 0 -k MAC -R 1100.000000
v -t 4.936592012 -e sim_annotation 4.936592012 38 node 0 sendout packet (UnderwaterRmac) 0
+ -t 4.946252265 -s 0 -d 3 -p UnderwaterRmac -e 40 -c 2 -a 0 -i 0 -k MAC 
- -t 4.946252265 -s 0 -d 3 -p UnderwaterRmac -e 40 -c 2 -a 0 -i 0 -k MAC
h -t 4.946252265 -s 0 -d 3 -p UnderwaterRmac -e 40 -c 2 -a 0 -i 0 -k MAC -R 1100.000000
v -t 4.946252265 -e sim_annotation 4.946252265 39 node 0 sendout packet (UnderwaterRmac) 0
+ -t 4.985260901 -s 3 -d 0 -p UnderwaterRmac -e 40 -c 2 -a 0 -i 0 -k MAC 
- -t 4.985260901 -s 3 -d 0 -p UnderwaterRmac -e 40 -c 2 -a 0 -i 0 -k MAC
h -t 4.985260901 -s 3 -d 0 -p UnderwaterRmac -e 40 -c 2 -a 0 -i 0 -k MAC -R 1100.000000
v -t 4.985260901 -e sim_annotation 4.985260901 40 node 3 sendout packet (UnderwaterRmac) 0
+ -t 5.104888596 -s 2 -d 0 -p UnderwaterRmac -e 40 -c 2 -a 0 -i 0 -k MAC 
- -t 5.104888596 -s 2 -d 0 -p UnderwaterRmac -e 40 -c 2 -a 0 -i 0 -k MAC
h -t 5.104888596 -s 2 -d 0 -p UnderwaterRmac -e 40 -c 2 -a 0 -i 0 -k MAC -R 1100.000000
v -t 5.104888596 -e sim_annotation 5.104888596 41 node 2 sendout packet (UnderwaterRmac) 0
+ -t 5.171589818 -s 1 -d 4 -p UnderwaterRmac -e 40 -c 2 -a 0 -i 0 -k MAC 
- -t 5.171589818 -s 1 -d 4 -p UnderwaterRmac -e 40 -c 2 -a 0 -i 0 -k MAC
h -t 5.171589818 -s 1 -d 4 -p UnderwaterRmac -e 40 -c 2 -a 0 -i 0 -k MAC -R 1100.000000
v -t 5.171589818 -e sim_annotation 5.171589818 42 node 1 sendout packet (UnderwaterRmac) 0
+ -t 5.176866675 -s 2 -d 4 -p UnderwaterRmac -e 40 -c 2 -a 0 -i 0 -k MAC 
- -t 5.176866675 -s 2 -d 4 -p UnderwaterRmac -e 40 -c 2 -a 0 -i 0 -k MAC
h -t 5.176866675 -s 2 -d 4 -p UnderwaterRmac -e 40 -c 2 -a 0 -i 0 -k MAC -R 1100.000000
v -t 5.176866675 -e sim_annotation 5.176866675 43 node 2 sendout packet (UnderwaterRmac) 0
+ -t 5.306246928 -s 3 -d 2 -p UnderwaterRmac -e 40 -c 2 -a 0 -i 0 -k MAC 
- -t 5.306246928 -s 3 -d 2 -p UnderwaterRmac -e 40 -c 2 -a 0 -i 0 -k MAC
h -t 5.306246928 -s 3 -d 2 -p UnderwaterRmac -e 40 -c 2 -a 0 -i 0 -k MAC -R 1100.000000
v -t 5.306246928 -e sim_annotation 5.306246928 44 node 3 sendout packet (UnderwaterRmac) 0
+ -t 5.393608668 -s 1 -d 0 -p UnderwaterRmac -e 40 -c 2 -a 0 -i 0 -k MAC 
- -t 5.393608668 -s 1 -d 0 -p UnderwaterRmac -e 40 -c 2 -a 0 -i 0 -k MAC
h -t 5.393608668 -s 1 -d 0 -p UnderwaterRmac -e 40 -c 2 -a 0 -i 0 -k MAC -R 1100.000000
v -t 5.393608668 -e sim_annotation 5.393608668 45 node 1 sendout packet (UnderwaterRmac) 0
+ -t 5.436279919 -s 3 -d 1 -p UnderwaterRmac -e 40 -c 2 -a 0 -i 0 -k MAC 
- -t 5.436279919 -s 3 -d 1 -p UnderwaterRmac -e 40 -c 2 -a 0 -i 0 -k MAC
h -t 5.436279919 -s 3 -d 1 -p UnderwaterRmac -e 40 -c 2 -a 0 -i 0 -k MAC -R 1100.000000
v -t 5.436279919 -e sim_annotation 5.436279919 46 node 3 sendout packet (UnderwaterRmac) 0
+ -t 6.002590893 -s 0 -d -1 -p UnderwaterRmac -e 40 -c 2 -a 0 -i 0 -k MAC 
- -t 6.002590893 -s 0 -d -1 -p UnderwaterRmac -e 40 -c 2 -a 0 -i 0 -k MAC
h -t 6.002590893 -s 0 -d -1 -p UnderwaterRmac -e 40 -c 2 -a 0 -i 0 -k MAC -R 1100.000000
v -t 6.002590893 -e sim_annotation 6.002590893 47 node 0 sendout packet (UnderwaterRmac) 0
+ -t 6.223943887 -s 4 -d -1 -p UnderwaterRmac -e 40 -c 2 -a 0 -i 0 -k MAC 
- -t 6.223943887 -s 4 -d -1 -p UnderwaterRmac -e 40 -c 2 -a 0 -i 0 -k MAC
h -t 6.223943887 -s 4 -d -1 -p UnderwaterRmac -e 40 -c 2 -a 0 -i 0 -k MAC -R 1100.000000
v -t 6.223943887 -e sim_annotation 6.223943887 48 node 4 sendout packet (UnderwaterRmac) 0
+ -t 6.394086272 -s 1 -d -1 -p UnderwaterRmac -e 40 -c 2 -a 0 -i 0 -k MAC 
- -t 6.394086272 -s 1 -d -1 -p UnderwaterRmac -e 40 -c 2 -a 0 -i 0 -k MAC
h -t 6.394086272 -s 1 -d -1 -p UnderwaterRmac -e 40 -c 2 -a 0 -i 0 -k MAC -R 1100.000000
v -t 6.394086272 -e sim_annotation 6.394086272 49 node 1 sendout packet (UnderwaterRmac) 0
+ -t 6.633822466 -s 2 -d -1 -p UnderwaterRmac -e 40 -c 2 -a 0 -i 0 -k MAC 
- -t 6.633822466 -s 2 -d -1 -p UnderwaterRmac -e 40 -c 2 -a 0 -i 0 -k MAC
h -t 6.633822466 -s 2 -d -1 -p UnderwaterRmac -e 40 -c 2 -a 0 -i 0 -k MAC -R 1100.000000
v -t 6.633822466 -e sim_annotation 6.633822466 50 node 2 sendout packet (UnderwaterRmac) 0
+ -t 6.956979384 -s 3 -d -1 -p UnderwaterRmac -e 40 -c 2 -a 0 -i 0 -k MAC 
- -t 6.956979384 -s 3 -d -1 -p UnderwaterRmac -e 40 -c 2 -a 0 -i 0 -k MAC
h -t 6.956979384 -s 3 -d -1 -p UnderwaterRmac -e 40 -c 2 -a 0 -i 0 -k MAC -R 1100.000000
v -t 6.956979384 -e sim_annotation 6.956979384 51 node 3 sendout packet (UnderwaterRmac) 0
+ -t 7.573874400 -s 4 -d 1 -p UnderwaterRmac -e 40 -c 2 -a 0 -i 0 -k MAC 
- -t 7.573874400 -s 4 -d 1 -p UnderwaterRmac -e 40 -c 2 -a 0 -i 0 -k MAC
h -t 7.573874400 -s 4 -d 1 -p UnderwaterRmac -e 40 -c 2 -a 0 -i 0 -k MAC -R 1100.000000
v -t 7.573874400 -e sim_annotation 7.573874400 52 node 4 sendout packet (UnderwaterRmac) 0
+ -t 7.673860788 -s 4 -d 3 -p UnderwaterRmac -e 40 -c 2 -a 0 -i 0 -k MAC 
- -t 7.673860788 -s 4 -d 3 -p UnderwaterRmac -e 40 -c 2 -a 0 -i 0 -k MAC
h -t 7.673860788 -s 4 -d 3 -p UnderwaterRmac -e 40 -c 2 -a 0 -i 0 -k MAC -R 1100.000000
v -t 7.673860788 -e sim_annotation 7.673860788 53 node 4 sendout packet (UnderwaterRmac) 0
+ -t 7.698816202 -s 1 -d 4 -p UnderwaterRmac -e 40 -c 2 -a 0 -i 0 -k MAC 
- -t 7.698816202 -s 1 -d 4 -p UnderwaterRmac -e 40 -c 2 -a 0 -i 0 -k MAC
h -t 7.698816202 -s 1 -d 4 -p UnderwaterRmac -e 40 -c 2 -a 0 -i 0 -k MAC -R 1100.000000
v -t 7.698816202 -e sim_annotation 7.698816202 54 node 1 sendout packet (UnderwaterRmac) 0
+ -t 7.723329950 -s 0 -d 4 -p UnderwaterRmac -e 40 -c 2 -a 0 -i 0 -k MAC 
- -t 7.723329950 -s 0 -d 4 -p UnderwaterRmac -e 40 -c 2 -a 0 -i 0 -k MAC
h -t 7.723329950 -s 0 -d 4 -p UnderwaterRmac -e 40 -c 2 -a 0 -i 0 -k MAC -R 1100.000000
v -t 7.723329950 -e sim_annotation 7.723329950 55 node 0 sendout packet (UnderwaterRmac) 0
+ -t 7.733739733 -s 2 -d 0 -p UnderwaterRmac -e 40 -c 2 -a 0 -i 0 -k MAC 
- -t 7.733739733 -s 2 -d 0 -p UnderwaterRmac -e 40 -c 2 -a 0 -i 0 -k MAC
h -t 7.733739733 -s 2 -d 0 -p UnderwaterRmac -e 40 -c 2 -a 0 -i 0 -k MAC -R 1100.000000
v -t 7.733739733 -e sim_annotation 7.733739733 56 node 2 sendout packet (UnderwaterRmac) 0
+ -t 7.795541973 -s 3 -d 2 -p UnderwaterRmac -e 40 -c 2 -a 0 -i 0 -k MAC 
- -t 7.795541973 -s 3 -d 2 -p UnderwaterRmac -e 40 -c 2 -a 0 -i 0 -k MAC
h -t 7.795541973 -s 3 -d 2 -p UnderwaterRmac -e 40 -c 2 -a 0 -i 0 -k MAC -R 1100.000000
v -t 7.795541973 -e sim_annotation 7.795541973 57 node 3 sendout packet (UnderwaterRmac) 0
+ -t 7.865655253 -s 1 -d 2 -p UnderwaterRmac -e 40 -c 2 -a 0 -i 0 -k MAC 
- -t 7.865655253 -s 1 -d 2 -p UnderwaterRmac -e 40 -c 2 -a 0 -i 0 -k MAC
h -t 7.865655253 -s 1 -d 2 -p UnderwaterRmac -e 40 -c 2 -a 0 -i 0 -k MAC -R 1100.000000
v -t 7.865655253 -e sim_annotation 7.865655253 58 node 1 sendout packet (UnderwaterRmac) 0
+ -t 7.918535095 -s 3 -d 0 -p UnderwaterRmac -e 40 -c 2 -a 0 -i 0 -k MAC 
- -t 7.918535095 -s 3 -d 0 -p UnderwaterRmac -e 40 -c 2 -a 0 -i 0 -k MAC
h -t 7.918535095 -s 3 -d 0 -p UnderwaterRmac -e 40 -c 2 -a 0 -i 0 -k MAC -R 1100.000000
v -t 7.918535095 -e sim_annotation 7.918535095 59 node 3 sendout packet (UnderwaterRmac) 0
+ -t 7.944829459 -s 0 -d 3 -p UnderwaterRmac -e 40 -c 2 -a 0 -i 0 -k MAC 
- -t 7.944829459 -s 0 -d 3 -p UnderwaterRmac -e 40 -c 2 -a 0 -i 0 -k MAC
h -t 7.944829459 -s 0 -d 3 -p UnderwaterRmac -e 40 -c 2 -a 0 -i 0 -k MAC -R 1100.000000
v -t 7.944829459 -e sim_annotation 7.944829459 60 node 0 sendout packet (UnderwaterRmac) 0
+ -t 8.015157560 -s 4 -d 0 -p UnderwaterRmac -e 40 -c 2 -a 0 -i 0 -k MAC 
- -t 8.015157560 -s 4 -d 0 -p UnderwaterRmac -e 40 -c 2 -a 0 -i 0 -k MAC
h -t 8.015157560 -s 4 -d 0 -p UnderwaterRmac -e 40 -c 2 -a 0 -i 0 -k MAC -R 1100.000000
v -t 8.015157560 -e sim_annotation 8.015157560 61 node 4 sendout packet (UnderwaterRmac) 0
+ -t 8.043339890 -s 2 -d 4 -p UnderwaterRmac -e 40 -c 2 -a 0 -i 0 -k MAC 
- -t 8.043339890 -s 2 -d 4 -p UnderwaterRmac -e 40 -c 2 -a 0 -i 0 -k MAC
h -t 8.043339890 -s 2 -d 4 -p UnderwaterRmac -e 40 -c 2 -a 0 -i 0 -k MAC -R 1100.000000
v -t 8.043339890 -e sim_annotation 8.043339890 62 node 2 sendout packet (UnderwaterRmac) 0
+ -t 8.196500674 -s 2 -d 3 -p UnderwaterRmac -e 40 -c 2 -a 0 -i 0 -k MAC 
- -t 8.196500674 -s 2 -d 3 -p UnderwaterRmac -e 40 -c 2 -a 0 -i 0 -k MAC
h -t 8.196500674 -s 2 -d 3 -p UnderwaterRmac -e 40 -c 2 -a 0 -i 0 -k MAC -R 1100.000000
v -t 8.196500674 -e sim_annotation 8.196500674 63 node 2 sendout packet (UnderwaterRmac) 0
+ -t 8.217597760 -s 0 -d 1 -p UnderwaterRmac -e 40 -c 2 -a 0 -i 0 -k MAC 
- -t 8.217597760 -s 0 -d 1 -p UnderwaterRmac -e 40 -c 2 -a 0 -i 0 -k MAC
h -t 8.217597760 -s 0 -d 1 -p UnderwaterRmac -e 40 -c 2 -a 0 -i 0 -k MAC -R 1100.000000
v -t 8.217597760 -e sim_annotation 8.217597760 64 node 0 sendout packet (UnderwaterRmac) 0
+ -t 8.376338832 -s 3 -d 4 -p UnderwaterRmac -e 40 -c 2 -a 0 -i 0 -k MAC 
- -t 8.376338832 -s 3 -d 4 -p UnderwaterRmac -e 40 -c 2 -a 0 -i 0 -k MAC
h -t 8.376338832 -s 3 -d 4 -p UnderwaterRmac -e 40 -c 2 -a 0 -i 0 -k MAC -R 1100.000000
v -t 8.376338832 -e sim_annotation 8.376338832 65 node 3 sendout packet (UnderwaterRmac) 0
+ -t 8.402949091 -s 4 -d 2 -p UnderwaterRmac -e 40 -c 2 -a 0 -i 0 -k MAC 
- -t 8.402949091 -s 4 -d 2 -p UnderwaterRmac -e 40 -c 2 -a 0 -i 0 -k MAC
h -t 8.402949091 -s 4 -d 2 -p UnderwaterRmac -e 40 -c 2 -a 0 -i 0 -k MAC -R 1100.000000
v -t 8.402949091 -e sim_annotation 8.402949091 66 node 4 sendout packet (UnderwaterRmac) 0
+ -t 8.437656277 -s 3 -d 1 -p UnderwaterRmac -e 40 -c 2 -a 0 -i 0 -k MAC 
- -t 8.437656277 -s 3 -d 1 -p UnderwaterRmac -e 40 -c 2 -a 0 -i 0 -k MAC
h -t 8.437656277 -s 3 -d 1 -p UnderwaterRmac -e 40 -c 2 -a 0 -i 0 -k MAC -R 1100.000000
v -t 8.437656277 -e sim_annotation 8.437656277 67 node 3 sendout packet (UnderwaterRmac) 0
+ -t 8.438011516 -s 0 -d 2 -p UnderwaterRmac -e 40 -c 2 -a 0 -i 0 -k MAC 
- -t 8.438011516 -s 0 -d 2 -p UnderwaterRmac -e 40 -c 2 -a 0 -i 0 -k MAC
h -t 8.438011516 -s 0 -d 2 -p UnderwaterRmac -e 40 -c 2 -a 0 -i 0 -k MAC -R 1100.000000
v -t 8.438011516 -e sim_annotation 8.438011516 68 node 0 sendout packet (UnderwaterRmac) 0
+ -t 9.231676807 -s 4 -d -1 -p UnderwaterRmac -e 40 -c 2 -a 0 -i 0 -k MAC 
- -t 9.231676807 -s 4 -d -1 -p UnderwaterRmac -e 40 -c 2 -a 0 -i 0 -k MAC
h -t 9.231676807 -s 4 -d -1 -p UnderwaterRmac -e 40 -c 2 -a 0 -i 0 -k MAC -R 1100.000000
v -t 9.231676807 -e sim_annotation 9.231676807 69 node 4 sendout packet (UnderwaterRmac) 0
+ -t 9.255473453 -s 2 -d -1 -p UnderwaterRmac -e 40 -c 2 -a 0 -i 0 -k MAC 
- -t 9.255473453 -s 2 -d -1 -p UnderwaterRmac -e 40 -c 2 -a 0 -i 0 -k MAC
h -t 9.255473453 -s 2 -d -1 -p UnderwaterRmac -e 40 -c 2 -a 0 -i 0 -k MAC -R 1100.000000
v -t 9.255473453 -e sim_annotation 9.255473453 70 node 2 sendout packet (UnderwaterRmac) 0
+ -t 9.268885360 -s 0 -d -1 -p UnderwaterRmac -e 40 -c 2 -a 0 -i 0 -k MAC 
- -t 9.268885360 -s 0 -d -1 -p UnderwaterRmac -e 40 -c 2 -a 0 -i 0 -k MAC
h -t 9.268885360 -s 0 -d -1 -p UnderwaterRmac -e 40 -c 2 -a 0 -i 0 -k MAC -R 1100.000000
v -t 9.268885360 -e sim_annotation 9.268885360 71 node 0 sendout packet (UnderwaterRmac) 0
+ -t 9.608526010 -s 1 -d -1 -p UnderwaterRmac -e 40 -c 2 -a 0 -i 0 -k MAC 
- -t 9.608526010 -s 1 -d -1 -p UnderwaterRmac -e 40 -c 2 -a 0 -i 0 -k MAC
h -t 9.608526010 -s 1 -d -1 -p UnderwaterRmac -e 40 -c 2 -a 0 -i 0 -k MAC -R 1100.000000
v -t 9.608526010 -e sim_annotation 9.608526010 72 node 1 sendout packet (UnderwaterRmac) 0
+ -t 9.723907354 -s 3 -d -1 -p UnderwaterRmac -e 40 -c 2 -a 0 -i 0 -k MAC 
- -t 9.723907354 -s 3 -d -1 -p UnderwaterRmac -e 40 -c 2 -a 0 -i 0 -k MAC
h -t 9.723907354 -s 3 -d -1 -p UnderwaterRmac -e 40 -c 2 -a 0 -i 0 -k MAC -R 1100.000000
v -t 9.723907354 -e sim_annotation 9.723907354 73 node 3 sendout packet (UnderwaterRmac) 0
+ -t 10.515006920 -s 4 -d 3 -p UnderwaterRmac -e 40 -c 2 -a 0 -i 0 -k MAC 
- -t 10.515006920 -s 4 -d 3 -p UnderwaterRmac -e 40 -c 2 -a 0 -i 0 -k MAC
h -t 10.515006920 -s 4 -d 3 -p UnderwaterRmac -e 40 -c 2 -a 0 -i 0 -k MAC -R 1100.000000
v -t 10.515006920 -e sim_annotation 10.515006920 74 node 4 sendout packet (UnderwaterRmac) 0
+ -t 10.589890676 -s 0 -d 1 -p UnderwaterRmac -e 40 -c 2 -a 0 -i 0 -k MAC 
- -t 10.589890676 -s 0 -d 1 -p UnderwaterRmac -e 40 -c 2 -a 0 -i 0 -k MAC
h -t 10.589890676 -s 0 -d 1 -p UnderwaterRmac -e 40 -c 2 -a 0 -i 0 -k MAC -R 1100.000000
v -t 10.589890676 -e sim_annotation 10.589890676 75 node 0 sendout packet (UnderwaterRmac) 0
+ -t 10.611330689 -s 0 -d 2 -p UnderwaterRmac -e 40 -c 2 -a 0 -i 0 -k MAC 
- -t 10.611330689 -s 0 -d 2 -p UnderwaterRmac -e 40 -c 2 -a 0 -i 0 -k MAC
h -t 10.611330689 -s 0 -d 2 -p UnderwaterRmac -e 40 -c 2 -a 0 -i 0 -k MAC -R 1100.000000
v -t 10.611330689 -e sim_annotation 10.611330689 76 node 0 sendout packet (UnderwaterRmac) 0
+ -t 10.643018281 -s 1 -d 0 -p UnderwaterRmac -e 40 -c 2 -a 0 -i 0 -k MAC 
- -t 10.643018281 -s 1 -d 0 -p UnderwaterRmac -e 40 -c 2 -a 0 -i 0 -k MAC
h -t 10.643018281 -s 1 -d 0 -p UnderwaterRmac -e 40 -c 2 -a 0 -i 0 -k MAC -R 1100.000000
v -t 10.643018281 -e sim_annotation 10.643018281 77 node 1 sendout packet (UnderwaterRmac) 0
+ -t 10.961608643 -s 2 -d 3 -p UnderwaterRmac -e 40 -c 2 -a 0 -i 0 -k MAC 
- -t 10.961608643 -s 2 -d 3 -p UnderwaterRmac -e 40 -c 2 -a 0 -i 0 -k MAC
h -t 10.961608643 -s 2 -d 3 -p UnderwaterRmac -e 40 -c 2 -a 0 -i 0 -k MAC -R 1100.000000
v -t 10.961608643 -e sim_annotation 10.961608643 78 node 2 sendout packet (UnderwaterRmac) 0
+ -t 10.963205066 -s 4 -d 1 -p UnderwaterRmac -e 40 -c 2 -a 0 -i 0 -k MAC 
- -t 10.963205066 -s 4 -d 1 -p UnderwaterRmac -e 40 -c 2 -a 0 -i 0 -k MAC
h -t 10.963205066 -s 4 -d 1 -p UnderwaterRmac -e 40 -c 2 -a 0 -i 0 -k MAC -R 1100.000000
v -t 10.963205066 -e sim_annotation 10.963205066 79 node 4 sendout packet (UnderwaterRmac) 0
+ -t 11.050353969 -s 1 -d 4 -p UnderwaterRmac -e 40 -c 2 -a 0 -i 0 -k MAC 
- -t 11.050353969 -s 1 -d 4 -p UnderwaterRmac -e 40 -c 2 -a 0 -i 0 -k MAC
h -t 11.050353969 -s 1 -d 4 -p UnderwaterRmac -e 40 -c 2 -a 0 -i 0 -k MAC -R 1100.000000
v -t 11.050353969 -e sim_annotation 11.050353969 80 node 1 sendout packet (UnderwaterRmac) 0
+ -t 11.071925674 -s 2 -d 0 -p UnderwaterRmac -e 40 -c 2 -a 0 -i 0 -k MAC 
- -t 11.071925674 -s 2 -d 0 -p UnderwaterRmac -e 40 -c 2 -a 0 -i 0 -k MAC
h -t 11.071925674 -s 2 -d 0 -p UnderwaterRmac -e 40 -c 2 -a 0 -i 0 -k MAC -R 1100.000000
v -t 11.071925674 -e sim_annotation 11.071925674 81 node 2 sendout packet (UnderwaterRmac) 0
+ -t 11.235377783 -s 2 -d 1 -p UnderwaterRmac -e 40 -c 2 -a 0 -i 0 -k MAC 
- -t 11.235377783 -s 2 -d 1 -p UnderwaterRmac -e 40 -c 2 -a 0 -i 0 -k MAC
h -t 11.235377783 -s 2 -d 1 -p UnderwaterRmac -e 40 -c 2 -a 0 -i 0 -k MAC -R 1100.000000
v -t 11.235377783 -e sim_annotation 11.235377783 82 node 2 sendout packet (UnderwaterRmac) 0
+ -t 11.257230801 -s 4 -d 0 -p UnderwaterRmac -e 40 -c 2 -a 0 -i 0 -k MAC 
- -t 11.257230801 -s 4 -d 0 -p UnderwaterRmac -e 40 -c 2 -a 0 -i 0 -k MAC
h -t 11.257230801 -s 4 -d 0 -p UnderwaterRmac -e 40 -c 2 -a 0 -i 0 -k MAC -R 1100.000000
v -t 11.257230801 -e sim_annotation 11.257230801 83 node 4 sendout packet (UnderwaterRmac) 0
+ -t 11.289192005 -s 2 -d 4 -p UnderwaterRmac -e 40 -c 2 -a 0 -i 0 -k MAC 
- -t 11.289192005 -s 2 -d 4 -p UnderwaterRmac -e 40 -c 2 -a 0 -i 0 -k MAC
h -t 11.289192005 -s 2 -d 4 -p UnderwaterRmac -e 40 -c 2 -a 0 -i 0 -k MAC -R 1100.000000
v -t 11.289192005 -e sim_annotation 11.289192005 84 node 2 sendout packet (UnderwaterRmac) 0
+ -t 11.347621173 -s 0 -d 3 -p UnderwaterRmac -e 40 -c 2 -a 0 -i 0 -k MAC 
- -t 11.347621173 -s 0 -d 3 -p UnderwaterRmac -e 40 -c 2 -a 0 -i 0 -k MAC
h -t 11.347621173 -s 0 -d 3 -p UnderwaterRmac -e 40 -c 2 -a 0 -i 0 -k MAC -R 1100.000000
v -t 11.347621173 -e sim_annotation 11.347621173 85 node 0 sendout packet (UnderwaterRmac) 0
+ -t 11.349442462 -s 1 -d 3 -p UnderwaterRmac -e 40 -c 2 -a 0 -i 0 -k MAC 
- -t 11.349442462 -s 1 -d 3 -p UnderwaterRmac -e 40 -c 2 -a 0 -i 0 -k MAC
h -t 11.349442462 -s 1 -d 3 -p UnderwaterRmac -e 40 -c 2 -a 0 -i 0 -k MAC -R 1100.000000
v -t 11.349442462 -e sim_annotation 11.349442462 86 node 1 sendout packet (UnderwaterRmac) 0
+ -t 11.382169020 -s 3 -d 1 -p UnderwaterRmac -e 40 -c 2 -a 0 -i 0 -k MAC 
- -t 11.382169020 -s 3 -d 1 -p UnderwaterRmac -e 40 -c 2 -a 0 -i 0 -k MAC
h -t 11.382169020 -s 3 -d 1 -p UnderwaterRmac -e 40 -c 2 -a 0 -i 0 -k MAC -R 1100.000000
v -t 11.382169020 -e sim_annotation 11.382169020 87 node 3 sendout packet (UnderwaterRmac) 0
+ -t 11.459312828 -s 1 -d 2 -p UnderwaterRmac -e 40 -c 2 -a 0 -i 0 -k MAC 
- -t 11.459312828 -s 1 -d 2 -p UnderwaterRmac -e 40 -c 2 -a 0 -i 0 -k MAC
h -t 11.459312828 -s 1 -d 2 -p UnderwaterRmac -e 40 -c 2 -a 0 -i 0 -k MAC -R 1100.000000
v -t 11.459312828 -e sim_annotation 11.459312828 88 node 1 sendout packet (UnderwaterRmac) 0
+ -t 12.442907708 -s 0 -d -1 -p UnderwaterRmac -e 40 -c 2 -a 0 -i 0 -k MAC 
- -t 12.442907708 -s 0 -d -1 -p UnderwaterRmac -e 40 -c 2 -a 0 -i 0 -k MAC
h -t 12.442907708 -s 0 -d -1 -p UnderwaterRmac -e 40 -c 2 -a 0 -i 0 -k MAC -R 1100.000000
v -t 12.442907708 -e sim_annotation 12.442907708 89 node 0 sendout packet (UnderwaterRmac) 0
+ -t 12.458706434 -s 1 -d -1 -p UnderwaterRmac -e 40 -c 2 -a 0 -i 0 -k MAC 
- -t 12.458706434 -s 1 -d -1 -p UnderwaterRmac -e 40 -c 2 -a 0 -i 0 -k MAC
h -t 12.458706434 -s 1 -d -1 -p UnderwaterRmac -e 40 -c 2 -a 0 -i 0 -k MAC -R 1100.000000
v -t 12.458706434 -e sim_annotation 12.458706434 90 node 1 sendout packet (UnderwaterRmac) 0
+ -t 12.500891680 -s 2 -d -1 -p UnderwaterRmac -e 40 -c 2 -a 0 -i 0 -k MAC 