n -t * -s 0  -x 500 -y 0 -Z 0 -z 10  -v circle -c green
n -t * -s 1  -x 440 -y 0 -Z 0 -z 10  -v circle -c green
n -t * -s 2  -x 450 -y 50 -Z 0 -z 10  -v circle -c green
n -t * -s 3  -x 500 -y 70 -Z 0 -z 10  -v circle -c green
n -t * -s 4  -x 470 -y 20 -Z 30 -z 10  -v circle -c green
n -t * -s 5  -x 490 -y 10 -Z 40 -z 10  -v circle -c green
V -t * -v 1.0a5 -a 0
W -t * -x 1000 -y 10
A -t * -n 1 -p 0 -o 0xffffffff -c 31 -a 1
A -t * -h 1 -m 2147483647 -s 0
+ -t 1.330025000 -s 1 -d -1 -p vectorbasedforward -e 50 -c 2 -a 0 -i 0 -k MAC 
- -t 1.330025000 -s 1 -d -1 -p vectorbasedforward -e 50 -c 2 -a 0 -i 0 -k MAC
h -t 1.330025000 -s 1 -d -1 -p vectorbasedforward -e 50 -c 2 -a 0 -i 0 -k MAC -R 1100.000000
v -t 1.330025000 -e sim_annotation 1.330025000 1 node 1 sendout packet (vectorbasedforward) 0
r -t 1.401294438 -s 4 -d -1 -p vectorbasedforward -e 50 -c 2 -a 0 -i 0 -k MAC -R 1100.000000
v -t 1.401294438 -e sim_annotation 1.401294438 2 node 4 receive packet(vectorbasedforward) 0
r -t 1.404018463 -s 2 -d -1 -p vectorbasedforward -e 50 -c 2 -a 0 -i 0 -k MAC -R 1100.000000
v -t 1.404018463 -e sim_annotation 1.404018463 3 node 2 receive packet(vectorbasedforward) 0
r -t 1.410025000 -s 0 -d -1 -p vectorbasedforward -e 50 -c 2 -a 0 -i 0 -k MAC -R 1100.000000
v -t 1.410025000 -e sim_annotation 1.410025000 4 node 0 receive packet(vectorbasedforward) 0
r -t 1.413229938 -s 5 -d -1 -p vectorbasedforward -e 50 -c 2 -a 0 -i 0 -k MAC -R 1100.000000
v -t 1.413229938 -e sim_annotation 1.413229938 5 node 5 receive packet(vectorbasedforward) 0
r -t 1.431488630 -s 3 -d -1 -p vectorbasedforward -e 50 -c 2 -a 0 -i 0 -k MAC -R 1100.000000
v -t 1.431488630 -e sim_annotation 1.431488630 6 node 3 receive packet(vectorbasedforward) 0
+ -t 1.830025000 -s 2 -d -1 -p vectorbasedforward -e 50 -c 2 -a 0 -i 1 -k MAC 
- -t 1.830025000 -s 2 -d -1 -p vectorbasedforward -e 50 -c 2 -a 0 -i 1 -k MAC
h -t 1.830025000 -s 2 -d -1 -p vectorbasedforward -e 50 -c 2 -a 0 -i 1 -k MAC -R 1100.000000
v -t 1.830025000 -e sim_annotation 1.830025000 7 node 2 sendout packet (vectorbasedforward) 1
r -t 1.901294438 -s 4 -d -1 -p vectorbasedforward -e 50 -c 2 -a 0 -i 1 -k MAC -R 1100.000000
v -t 1.901294438 -e sim_annotation 1.901294438 8 node 4 receive packet(vectorbasedforward) 1
r -t 1.904018463 -s 1 -d -1 -p vectorbasedforward -e 50 -c 2 -a 0 -i 1 -k MAC -R 1100.000000
v -t 1.904018463 -e sim_annotation 1.904018463 9 node 1 receive packet(vectorbasedforward) 1
r -t 1.905926099 -s 3 -d -1 -p vectorbasedforward -e 50 -c 2 -a 0 -i 1 -k MAC -R 1100.000000
v -t 1.905926099 -e sim_annotation 1.905926099 10 node 3 receive packet(vectorbasedforward) 1
r -t 1.916213022 -s 5 -d -1 -p vectorbasedforward -e 50 -c 2 -a 0 -i 1 -k MAC -R 1100.000000
v -t 1.916213022 -e sim_annotation 1.916213022 11 node 5 receive packet(vectorbasedforward) 1
r -t 1.917165452 -s 0 -d -1 -p vectorbasedforward -e 50 -c 2 -a 0 -i 1 -k MAC -R 1100.000000
v -t 1.917165452 -e sim_annotation 1.917165452 12 node 0 receive packet(vectorbasedforward) 1
+ -t 2.330025000 -s 3 -d -1 -p vectorbasedforward -e 50 -c 2 -a 0 -i 2 -k MAC 
- -t 2.330025000 -s 3 -d -1 -p vectorbasedforward -e 50 -c 2 -a 0 -i 2 -k MAC
h -t 2.330025000 -s 3 -d -1 -p vectorbasedforward -e 50 -c 2 -a 0 -i 2 -k MAC -R 1100.000000
v -t 2.330025000 -e sim_annotation 2.330025000 13 node 3 sendout packet (vectorbasedforward) 2
r -t 2.405926099 -s 2 -d -1 -p vectorbasedforward -e 50 -c 2 -a 0 -i 2 -k MAC -R 1100.000000
v -t 2.405926099 -e sim_annotation 2.405926099 14 node 2 receive packet(vectorbasedforward) 2
r -t 2.413741257 -s 4 -d -1 -p vectorbasedforward -e 50 -c 2 -a 0 -i 2 -k MAC -R 1100.000000
v -t 2.413741257 -e sim_annotation 2.413741257 15 node 4 receive packet(vectorbasedforward) 2
r -t 2.416691667 -s 0 -d -1 -p vectorbasedforward -e 50 -c 2 -a 0 -i 2 -k MAC -R 1100.000000
v -t 2.416691667 -e sim_annotation 2.416691667 16 node 0 receive packet(vectorbasedforward) 2
r -t 2.418559066 -s 5 -d -1 -p vectorbasedforward -e 50 -c 2 -a 0 -i 2 -k MAC -R 1100.000000
v -t 2.418559066 -e sim_annotation 2.418559066 17 node 5 receive packet(vectorbasedforward) 2
r -t 2.431488630 -s 1 -d -1 -p vectorbasedforward -e 50 -c 2 -a 0 -i 2 -k MAC -R 1100.000000
v -t 2.431488630 -e sim_annotation 2.431488630 18 node 1 receive packet(vectorbasedforward) 2
+ -t 2.830025000 -s 4 -d -1 -p vectorbasedforward -e 50 -c 2 -a 0 -i 3 -k MAC 
- -t 2.830025000 -s 4 -d -1 -p vectorbasedforward -e 50 -c 2 -a 0 -i 3 -k MAC
h -t 2.830025000 -s 4 -d -1 -p vectorbasedforward -e 50 -c 2 -a 0 -i 3 -k MAC -R 1100.000000
v -t 2.830025000 -e sim_annotation 2.830025000 19 node 4 sendout packet (vectorbasedforward) 3
r -t 2.886354932 -s 5 -d -1 -p vectorbasedforward -e 50 -c 2 -a 0 -i 3 -k MAC -R 1100.000000
v -t 2.886354932 -e sim_annotation 2.886354932 20 node 5 receive packet(vectorbasedforward) 3
r -t 2.901294438 -s 2 -d -1 -p vectorbasedforward -e 50 -c 2 -a 0 -i 3 -k MAC -R 1100.000000
v -t 2.901294438 -e sim_annotation 2.901294438 21 node 2 receive packet(vectorbasedforward) 3
r -t 2.901294438 -s 1 -d -1 -p vectorbasedforward -e 50 -c 2 -a 0 -i 3 -k MAC -R 1100.000000
v -t 2.901294438 -e sim_annotation 2.901294438 22 node 1 receive packet(vectorbasedforward) 3
r -t 2.901294438 -s 0 -d -1 -p vectorbasedforward -e 50 -c 2 -a 0 -i 3 -k MAC -R 1100.000000
v -t 2.901294438 -e sim_annotation 2.901294438 23 node 0 receive packet(vectorbasedforward) 3
r -t 2.913741257 -s 3 -d -1 -p vectorbasedforward -e 50 -c 2 -a 0 -i 3 -k MAC -R 1100.000000
v -t 2.913741257 -e sim_annotation 2.913741257 24 node 3 receive packet(vectorbasedforward) 3
+ -t 3.330025000 -s 5 -d -1 -p vectorbasedforward -e 50 -c 2 -a 0 -i 4 -k MAC 
- -t 3.330025000 -s 5 -d -1 -p vectorbasedforward -e 50 -c 2 -a 0 -i 4 -k MAC
h -t 3.330025000 -s 5 -d -1 -p vectorbasedforward -e 50 -c 2 -a 0 -i 4 -k MAC -R 1100.000000
v -t 3.330025000 -e sim_annotation 3.330025000 25 node 5 sendout packet (vectorbasedforward) 4
r -t 3.386354932 -s 4 -d -1 -p vectorbasedforward -e 50 -c 2 -a 0 -i 4 -k MAC -R 1100.000000
v -t 3.386354932 -e sim_annotation 3.386354932 26 node 4 receive packet(vectorbasedforward) 4
r -t 3.398309271 -s 0 -d -1 -p vectorbasedforward -e 50 -c 2 -a 0 -i 4 -k MAC -R 1100.000000
v -t 3.398309271 -e sim_annotation 3.398309271 27 node 0 receive packet(vectorbasedforward) 4
r -t 3.413229938 -s 1 -d -1 -p vectorbasedforward -e 50 -c 2 -a 0 -i 4 -k MAC -R 1100.000000
v -t 3.413229938 -e sim_annotation 3.413229938 28 node 1 receive packet(vectorbasedforward) 4
r -t 3.416213022 -s 2 -d -1 -p vectorbasedforward -e 50 -c 2 -a 0 -i 4 -k MAC -R 1100.000000
v -t 3.416213022 -e sim_annotation 3.416213022 29 node 2 receive packet(vectorbasedforward) 4
r -t 3.418559066 -s 3 -d -1 -p vectorbasedforward -e 50 -c 2 -a 0 -i 4 -k MAC -R 1100.000000
v -t 3.418559066 -e sim_annotation 3.418559066 30 node 3 receive packet(vectorbasedforward) 4
+ -t 4.389050257 -s 3 -d -1 -p vectorbasedforward -e 50 -c 2 -a 0 -i 1 -k MAC 
- -t 4.389050257 -s 3 -d -1 -p vectorbasedforward -e 50 -c 2 -a 0 -i 1 -k MAC
h -t 4.389050257 -s 3 -d -1 -p vectorbasedforward -e 50 -c 2 -a 0 -i 1 -k MAC -R 1100.000000
v -t 4.389050257 -e sim_annotation 4.389050257 31 node 3 sendout packet (vectorbasedforward) 1
r -t 4.464951356 -s 2 -d -1 -p vectorbasedforward -e 50 -c 2 -a 0 -i 1 -k MAC -R 1100.000000
v -t 4.464951356 -e sim_annotation 4.464951356 32 node 2 receive packet(vectorbasedforward) 1
r -t 4.472766514 -s 4 -d -1 -p vectorbasedforward -e 50 -c 2 -a 0 -i 1 -k MAC -R 1100.000000
v -t 4.472766514 -e sim_annotation 4.472766514 33 node 4 receive packet(vectorbasedforward) 1
r -t 4.475716924 -s 0 -d -1 -p vectorbasedforward -e 50 -c 2 -a 0 -i 1 -k MAC -R 1100.000000
v -t 4.475716924 -e sim_annotation 4.475716924 34 node 0 receive packet(vectorbasedforward) 1
r -t 4.477584323 -s 5 -d -1 -p vectorbasedforward -e 50 -c 2 -a 0 -i 1 -k MAC -R 1100.000000
v -t 4.477584323 -e sim_annotation 4.477584323 35 node 5 receive packet(vectorbasedforward) 1
r -t 4.490513887 -s 1 -d -1 -p vectorbasedforward -e 50 -c 2 -a 0 -i 1 -k MAC -R 1100.000000
v -t 4.490513887 -e sim_annotation 4.490513887 36 node 1 receive packet(vectorbasedforward) 1
+ -t 4.837957229 -s 2 -d -1 -p vectorbasedforward -e 50 -c 2 -a 0 -i 2 -k MAC 
- -t 4.837957229 -s 2 -d -1 -p vectorbasedforward -e 50 -c 2 -a 0 -i 2 -k MAC
h -t 4.837957229 -s 2 -d -1 -p vectorbasedforward -e 50 -c 2 -a 0 -i 2 -k MAC -R 1100.000000
v -t 4.837957229 -e sim_annotation 4.837957229 37 node 2 sendout packet (vectorbasedforward) 2
r -t 4.909226668 -s 4 -d -1 -p vectorbasedforward -e 50 -c 2 -a 0 -i 2 -k MAC -R 1100.000000
v -t 4.909226668 -e sim_annotation 4.909226668 38 node 4 receive packet(vectorbasedforward) 2
r -t 4.911950693 -s 1 -d -1 -p vectorbasedforward -e 50 -c 2 -a 0 -i 2 -k MAC -R 1100.000000
v -t 4.911950693 -e sim_annotation 4.911950693 39 node 1 receive packet(vectorbasedforward) 2
r -t 4.913858328 -s 3 -d -1 -p vectorbasedforward -e 50 -c 2 -a 0 -i 2 -k MAC -R 1100.000000
v -t 4.913858328 -e sim_annotation 4.913858328 40 node 3 receive packet(vectorbasedforward) 2
r -t 4.924145251 -s 5 -d -1 -p vectorbasedforward -e 50 -c 2 -a 0 -i 2 -k MAC -R 1100.000000
v -t 4.924145251 -e sim_annotation 4.924145251 41 node 5 receive packet(vectorbasedforward) 2
r -t 4.925097681 -s 0 -d -1 -p vectorbasedforward -e 50 -c 2 -a 0 -i 2 -k MAC -R 1100.000000
v -t 4.925097681 -e sim_annotation 4.925097681 42 node 0 receive packet(vectorbasedforward) 2
+ -t 5.395594214 -s 5 -d -1 -p vectorbasedforward -e 50 -c 2 -a 0 -i 3 -k MAC 
- -t 5.395594214 -s 5 -d -1 -p vectorbasedforward -e 50 -c 2 -a 0 -i 3 -k MAC
h -t 5.395594214 -s 5 -d -1 -p vectorbasedforward -e 50 -c 2 -a 0 -i 3 -k MAC -R 1100.000000
v -t 5.395594214 -e sim_annotation 5.395594214 43 node 5 sendout packet (vectorbasedforward) 3
r -t 5.451924146 -s 4 -d -1 -p vectorbasedforward -e 50 -c 2 -a 0 -i 3 -k MAC -R 1100.000000
v -t 5.451924146 -e sim_annotation 5.451924146 44 node 4 receive packet(vectorbasedforward) 3
r -t 5.463878485 -s 0 -d -1 -p vectorbasedforward -e 50 -c 2 -a 0 -i 3 -k MAC -R 1100.000000
v -t 5.463878485 -e sim_annotation 5.463878485 45 node 0 receive packet(vectorbasedforward) 3
r -t 5.478799152 -s 1 -d -1 -p vectorbasedforward -e 50 -c 2 -a 0 -i 3 -k MAC -R 1100.000000
v -t 5.478799152 -e sim_annotation 5.478799152 46 node 1 receive packet(vectorbasedforward) 3
r -t 5.481782236 -s 2 -d -1 -p vectorbasedforward -e 50 -c 2 -a 0 -i 3 -k MAC -R 1100.000000
v -t 5.481782236 -e sim_annotation 5.481782236 47 node 2 receive packet(vectorbasedforward) 3
+ -t 5.482592461 -s 1 -d -1 -p vectorbasedforward -e 50 -c 2 -a 0 -i 3 -k MAC 
- -t 5.482592461 -s 1 -d -1 -p vectorbasedforward -e 50 -c 2 -a 0 -i 3 -k MAC
h -t 5.482592461 -s 1 -d -1 -p vectorbasedforward -e 50 -c 2 -a 0 -i 3 -k MAC -R 1100.000000
v -t 5.482592461 -e sim_annotation 5.482592461 48 node 1 sendout packet (vectorbasedforward) 3
r -t 5.484128280 -s 3 -d -1 -p vectorbasedforward -e 50 -c 2 -a 0 -i 3 -k MAC -R 1100.000000
v -t 5.484128280 -e sim_annotation 5.484128280 49 node 3 receive packet(vectorbasedforward) 3
r -t 5.553861899 -s 4 -d -1 -p vectorbasedforward -e 50 -c 2 -a 0 -i 3 -k MAC -R 1100.000000
v -t 5.553861899 -e sim_annotation 5.553861899 50 node 4 receive packet(vectorbasedforward) 3
r -t 5.556585925 -s 2 -d -1 -p vectorbasedforward -e 50 -c 2 -a 0 -i 3 -k MAC -R 1100.000000
v -t 5.556585925 -e sim_annotation 5.556585925 51 node 2 receive packet(vectorbasedforward) 3
r -t 5.562592461 -s 0 -d -1 -p vectorbasedforward -e 50 -c 2 -a 0 -i 3 -k MAC -R 1100.000000
v -t 5.562592461 -e sim_annotation 5.562592461 52 node 0 receive packet(vectorbasedforward) 3
r -t 5.565797399 -s 5 -d -1 -p vectorbasedforward -e 50 -c 2 -a 0 -i 3 -k MAC -R 1100.000000
v -t 5.565797399 -e sim_annotation 5.565797399 53 node 5 receive packet(vectorbasedforward) 3
r -t 5.584056091 -s 3 -d -1 -p vectorbasedforward -e 50 -c 2 -a 0 -i 3 -k MAC -R 1100.000000
v -t 5.584056091 -e sim_annotation 5.584056091 54 node 3 receive packet(vectorbasedforward) 3
+ -t 5.934714013 -s 4 -d -1 -p vectorbasedforward -e 50 -c 2 -a 0 -i 4 -k MAC 
- -t 5.934714013 -s 4 -d -1 -p vectorbasedforward -e 50 -c 2 -a 0 -i 4 -k MAC
h -t 5.934714013 -s 4 -d -1 -p vectorbasedforward -e 50 -c 2 -a 0 -i 4 -k MAC -R 1100.000000
v -t 5.934714013 -e sim_annotation 5.934714013 55 node 4 sendout packet (vectorbasedforward) 4
r -t 5.991043944 -s 5 -d -1 -p vectorbasedforward -e 50 -c 2 -a 0 -i 4 -k MAC -R 1100.000000
v -t 5.991043944 -e sim_annotation 5.991043944 56 node 5 receive packet(vectorbasedforward) 4
r -t 6.005983451 -s 2 -d -1 -p vectorbasedforward -e 50 -c 2 -a 0 -i 4 -k MAC -R 1100.000000
v -t 6.005983451 -e sim_annotation 6.005983451 57 node 2 receive packet(vectorbasedforward) 4
r -t 6.005983451 -s 1 -d -1 -p vectorbasedforward -e 50 -c 2 -a 0 -i 4 -k MAC -R 1100.000000
v -t 6.005983451 -e sim_annotation 6.005983451 58 node 1 receive packet(vectorbasedforward) 4
r -t 6.005983451 -s 0 -d -1 -p vectorbasedforward -e 50 -c 2 -a 0 -i 4 -k MAC -R 1100.000000
v -t 6.005983451 -e sim_annotation 6.005983451 59 node 0 receive packet(vectorbasedforward) 4
r -t 6.018430270 -s 3 -d -1 -p vectorbasedforward -e 50 -c 2 -a 0 -i 4 -k MAC -R 1100.000000
v -t 6.018430270 -e sim_annotation 6.018430270 60 node 3 receive packet(vectorbasedforward) 4
+ -t 11.330025000 -s 1 -d -1 -p vectorbasedforward -e 50 -c 2 -a 0 -i 5 -k MAC 
- -t 11.330025000 -s 1 -d -1 -p vectorbasedforward -e 50 -c 2 -a 0 -i 5 -k MAC
h -t 11.330025000 -s 1 -d -1 -p vectorbasedforward -e 50 -c 2 -a 0 -i 5 -k MAC -R 1100.000000
v -t 11.330025000 -e sim_annotation 11.330025000 61 node 1 sendout packet (vectorbasedforward) 5
r -t 11.401294438 -s 4 -d -1 -p vectorbasedforward -e 50 -c 2 -a 0 -i 5 -k MAC -R 1100.000000
v -t 11.401294438 -e sim_annotation 11.401294438 62 node 4 receive packet(vectorbasedforward) 5
r -t 11.404018463 -s 2 -d -1 -p vectorbasedforward -e 50 -c 2 -a 0 -i 5 -k MAC -R 1100.000000
v -t 11.404018463 -e sim_annotation 11.404018463 63 node 2 receive packet(vectorbasedforward) 5
r -t 11.410025000 -s 0 -d -1 -p vectorbasedforward -e 50 -c 2 -a 0 -i 5 -k MAC -R 1100.000000
v -t 11.410025000 -e sim_annotation 11.410025000 64 node 0 receive packet(vectorbasedforward) 5
r -t 11.413229938 -s 5 -d -1 -p vectorbasedforward -e 50 -c 2 -a 0 -i 5 -k MAC -R 1100.000000
v -t 11.413229938 -e sim_annotation 11.413229938 65 node 5 receive packet(vectorbasedforward) 5
r -t 11.431488630 -s 3 -d -1 -p vectorbasedforward -e 50 -c 2 -a 0 -i 5 -k MAC -R 1100.000000
v -t 11.431488630 -e sim_annotation 11.431488630 66 node 3 receive packet(vectorbasedforward) 5
+ -t 11.830025000 -s 2 -d -1 -p vectorbasedforward -e 50 -c 2 -a 0 -i 6 -k MAC 
- -t 11.830025000 -s 2 -d -1 -p vectorbasedforward -e 50 -c 2 -a 0 -i 6 -k MAC
h -t 11.830025000 -s 2 -d -1 -p vectorbasedforward -e 50 -c 2 -a 0 -i 6 -k MAC -R 1100.000000
v -t 11.830025000 -e sim_annotation 11.830025000 67 node 2 sendout packet (vectorbasedforward) 6
r -t 11.901294438 -s 4 -d -1 -p vectorbasedforward -e 50 -c 2 -a 0 -i 6 -k MAC -R 1100.000000
v -t 11.901294438 -e sim_annotation 11.901294438 68 node 4 receive packet(vectorbasedforward) 6
r -t 11.904018463 -s 1 -d -1 -p vectorbasedforward -e 50 -c 2 -a 0 -i 6 -k MAC -R 1100.000000
v -t 11.904018463 -e sim_annotation 11.904018463 69 node 1 receive packet(vectorbasedforward) 6
r -t 11.905926099 -s 3 -d -1 -p vectorbasedforward -e 50 -c 2 -a 0 -i 6 -k MAC -R 1100.000000
v -t 11.905926099 -e sim_annotation 11.905926099 70 node 3 receive packet(vectorbasedforward) 6
r -t 11.916213022 -s 5 -d -1 -p vectorbasedforward -e 50 -c 2 -a 0 -i 6 -k MAC -R 1100.000000
v -t 11.916213022 -e sim_annotation 11.916213022 71 node 5 receive packet(vectorbasedforward) 6
r -t 11.917165452 -s 0 -d -1 -p vectorbasedforward -e 50 -c 2 -a 0 -i 6 -k MAC -R 1100.000000
v -t 11.917165452 -e sim_annotation 11.917165452 72 node 0 receive packet(vectorbasedforward) 6
+ -t 12.330025000 -s 3 -d -1 -p vectorbasedforward -e 50 -c 2 -a 0 -i 7 -k MAC 
- -t 12.330025000 -s 3 -d -1 -p vectorbasedforward -e 50 -c 2 -a 0 -i 7 -k MAC
h -t 12.330025000 -s 3 -d -1 -p vectorbasedforward -e 50 -c 2 -a 0 -i 7 -k MAC -R 1100.000000
v -t 12.330025000 -e sim_annotation 12.330025000 73 node 3 sendout packet (vectorbasedforward) 7
r -t 12.405926099 -s 2 -d -1 -p vectorbasedforward -e 50 -c 2 -a 0 -i 7 -k MAC -R 1100.000000
v -t 12.405926099 -e sim_annotation 12.405926099 74 node 2 receive packet(vectorbasedforward) 7
r -t 12.413741257 -s 4 -d -1 -p vectorbasedforward -e 50 -c 2 -a 0 -i 7 -k MAC -R 1100.000000
v -t 12.413741257 -e sim_annotation 12.413741257 75 node 4 receive packet(vectorbasedforward) 7
r -t 12.416691667 -s 0 -d -1 -p vectorbasedforward -e 50 -c 2 -a 0 -i 7 -k MAC -R 1100.000000
v -t 12.416691667 -e sim_annotation 12.416691667 76 node 0 receive packet(vectorbasedforward) 7
r -t 12.418559066 -s 5 -d -1 -p vectorbasedforward -e 50 -c 2 -a 0 -i 7 -k MAC -R 1100.000000
v -t 12.418559066 -e sim_annotation 12.418559066 77 node 5 receive packet(vectorbasedforward) 7
r -t 12.431488630 -s 1 -d -1 -p vectorbasedforward -e 50 -c 2 -a 0 -i 7 -k MAC -R 1100.000000
v -t 12.431488630 -e sim_annotation 12.431488630 78 node 1 receive packet(vectorbasedforward) 7
+ -t 12.830025000 -s 4 -d -1 -p vectorbasedforward -e 50 -c 2 -a 0 -i 8 -k MAC 
- -t 12.830025000 -s 4 -d -1 -p vectorbasedforward -e 50 -c 2 -a 0 -i 8 -k MAC
h -t 12.830025000 -s 4 -d -1 -p vectorbasedforward -e 50 -c 2 -a 0 -i 8 -k MAC -R 1100.000000
v -t 12.830025000 -e sim_annotation 12.830025000 79 node 4 sendout packet (vectorbasedforward) 8
r -t 12.886354932 -s 5 -d -1 -p vectorbasedforward -e 50 -c 2 -a 0 -i 8 -k MAC -R 1100.000000
v -t 12.886354932 -e sim_annotation 12.886354932 80 node 5 receive packet(vectorbasedforward) 8
r -t 12.901294438 -s 2 -d -1 -p vectorbasedforward -e 50 -c 2 -a 0 -i 8 -k MAC -R 1100.000000
v -t 12.901294438 -e sim_annotation 12.901294438 81 node 2 receive packet(vectorbasedforward) 8
r -t 12.901294438 -s 1 -d -1 -p vectorbasedforward -e 50 -c 2 -a 0 -i 8 -k MAC -R 1100.000000
v -t 12.901294438 -e sim_annotation 12.901294438 82 node 1 receive packet(vectorbasedforward) 8
r -t 12.901294438 -s 0 -d -1 -p vectorbasedforward -e 50 -c 2 -a 0 -i 8 -k MAC -R 1100.000000
v -t 12.901294438 -e sim_annotation 12.901294438 83 node 0 receive packet(vectorbasedforward) 8
r -t 12.913741257 -s 3 -d -1 -p vectorbasedforward -e 50 -c 2 -a 0 -i 8 -k MAC -R 1100.000000
v -t 12.913741257 -e sim_annotation 12.913741257 84 node 3 receive packet(vectorbasedforward) 8
+ -t 13.330025000 -s 5 -d -1 -p vectorbasedforward -e 50 -c 2 -a 0 -i 9 -k MAC 
- -t 13.330025000 -s 5 -d -1 -p vectorbasedforward -e 50 -c 2 -a 0 -i 9 -k MAC
h -t 13.330025000 -s 5 -d -1 -p vectorbasedforward -e 50 -c 2 -a 0 -i 9 -k MAC -R 1100.000000
v -t 13.330025000 -e sim_annotation 13.330025000 85 node 5 sendout packet (vectorbasedforward) 9
r -t 13.386354932 -s 4 -d -1 -p vectorbasedforward -e 50 -c 2 -a 0 -i 9 -k MAC -R 1100.000000
v -t 13.386354932 -e sim_annotation 13.386354932 86 node 4 receive packet(vectorbasedforward) 9
r -t 13.398309271 -s 0 -d -1 -p vectorbasedforward -e 50 -c 2 -a 0 -i 9 -k MAC -R 1100.000000
v -t 13.398309271 -e sim_annotation 13.398309271 87 node 0 receive packet(vectorbasedforward) 9
r -t 13.413229938 -s 1 -d -1 -p vectorbasedforward -e 50 -c 2 -a 0 -i 9 -k MAC -R 1100.000000
v -t 13.413229938 -e sim_annotation 13.413229938 88 node 1 receive packet(vectorbasedforward) 9
r -t 13.416213022 -s 2 -d -1 -p vectorbasedforward -e 50 -c 2 -a 0 -i 9 -k MAC -R 1100.000000
v -t 13.416213022 -e sim_annotation 13.416213022 89 node 2 receive packet(vectorbasedforward) 9
r -t 13.418559066 -s 3 -d -1 -p vectorbasedforward -e 50 -c 2 -a 0 -i 9 -k MAC -R 1100.000000
v -t 13.418559066 -e sim_annotation 13.418559066 90 node 3 receive packet(vectorbasedforward) 9
+ -t 13.977866269 -s 4 -d -1 -p vectorbasedforward -e 50 -c 2 -a 0 -i 5 -k MAC 
- -t 13.977866269 -s 4 -d -1 -p vectorbasedforward -e 50 -c 2 -a 0 -i 5 -k MAC
h -t 13.977866269 -s 4 -d -1 -p vectorbasedforward -e 50 -c 2 -a 0 -i 5 -k MAC -R 1100.000000
v -t 13.977866269 -e sim_annotation 13.977866269 91 node 4 sendout packet (vectorbasedforward) 5
+ -t 13.991603286 -s 5 -d -1 -p vectorbasedforward -e 50 -c 2 -a 0 -i 5 -k MAC 
- -t 13.991603286 -s 5 -d -1 -p vectorbasedforward -e 50 -c 2 -a 0 -i 5 -k MAC
h -t 13.991603286 -s 5 -d -1 -p vectorbasedforward -e 50 -c 2 -a 0 -i 5 -k MAC -R 1100.000000
v -t 13.991603286 -e sim_annotation 13.991603286 92 node 5 sendout packet (vectorbasedforward) 5
r -t 14.034196201 -s 5 -d -1 -p vectorbasedforward -e 50 -c 2 -a 0 -i 5 -k MAC -R 1100.000000
v -t 14.034196201 -e sim_annotation 14.034196201 93 node 5 receive packet(vectorbasedforward) 5
r -t 14.047933217 -s 4 -d -1 -p vectorbasedforward -e 50 -c 2 -a 0 -i 5 -k MAC -R 1100.000000
v -t 14.047933217 -e sim_annotation 14.047933217 94 node 4 receive packet(vectorbasedforward) 5
d -t 14.049135707 -s 2 -d -1 -p vectorbasedforward -e 50 -c 2 -a 0 -i 5 -k MAC
v -t 14.049135707 -e sim_annotation 14.049135707 95 node 2 drop packet(vectorbasedforward) 5
d -t 14.049135707 -s 1 -d -1 -p vectorbasedforward -e 50 -c 2 -a 0 -i 5 -k MAC
v -t 14.049135707 -e sim_annotation 14.049135707 96 node 1 drop packet(vectorbasedforward) 5
d -t 14.049135707 -s 0 -d -1 -p vectorbasedforward -e 50 -c 2 -a 0 -i 5 -k MAC
v -t 14.049135707 -e sim_annotation 14.049135707 97 node 0 drop packet(vectorbasedforward) 5
d -t 14.059887557 -s 0 -d -1 -p vectorbasedforward -e 50 -c 2 -a 0 -i 5 -k MAC
v -t 14.059887557 -e sim_annotation 14.059887557 98 node 0 drop packet(vectorbasedforward) 5
d -t 14.061582526 -s 3 -d -1 -p vectorbasedforward -e 50 -c 2 -a 0 -i 5 -k MAC
v -t 14.061582526 -e sim_annotation 14.061582526 99 node 3 drop packet(vectorbasedforward) 5
d -t 14.074808224 -s 1 -d -1 -p vectorbasedforward -e 50 -c 2 -a 0 -i 5 -k MAC
v -t 14.074808224 -e sim_annotation 14.074808224 100 node 1 drop packet(vectorbasedforward) 5
d -t 14.077791307 -s 2 -d -1 -p vectorbasedforward -e 50 -c 2 -a 0 -i 5 -k MAC
v -t 14.077791307 -e sim_annotation 14.077791307 101 node 2 drop packet(vectorbasedforward) 5
d -t 14.080137352 -s 3 -d -1 -p vectorbasedforward -e 50 -c 2 -a 0 -i 5 -k MAC
v -t 14.080137352 -e sim_annotation 14.080137352 102 node 3 drop packet(vectorbasedforward) 5
+ -t 14.389050257 -s 3 -d -1 -p vectorbasedforward -e 50 -c 2 -a 0 -i 6 -k MAC 
- -t 14.389050257 -s 3 -d -1 -p vectorbasedforward -e 50 -c 2 -a 0 -i 6 -k MAC
h -t 14.389050257 -s 3 -d -1 -p vectorbasedforward -e 50 -c 2 -a 0 -i 6 -k MAC -R 1100.000000
v -t 14.389050257 -e sim_annotation 14.389050257 103 node 3 sendout packet (vectorbasedforward) 6
r -t 14.464951356 -s 2 -d -1 -p vectorbasedforward -e 50 -c 2 -a 0 -i 6 -k MAC -R 1100.000000
v -t 14.464951356 -e sim_annotation 14.464951356 104 node 2 receive packet(vectorbasedforward) 6
r -t 14.472766514 -s 4 -d -1 -p vectorbasedforward -e 50 -c 2 -a 0 -i 6 -k MAC -R 1100.000000
v -t 14.472766514 -e sim_annotation 14.472766514 105 node 4 receive packet(vectorbasedforward) 6
r -t 14.475716924 -s 0 -d -1 -p vectorbasedforward -e 50 -c 2 -a 0 -i 6 -k MAC -R 1100.000000
v -t 14.475716924 -e sim_annotation 14.475716924 106 node 0 receive packet(vectorbasedforward) 6
r -t 14.477584323 -s 5 -d -1 -p vectorbasedforward -e 50 -c 2 -a 0 -i 6 -k MAC -R 1100.000000
v -t 14.477584323 -e sim_annotation 14.477584323 107 node 5 receive packet(vectorbasedforward) 6
r -t 14.490513887 -s 1 -d -1 -p vectorbasedforward -e 50 -c 2 -a 0 -i 6 -k MAC -R 1100.000000
v -t 14.490513887 -e sim_annotation 14.490513887 108 node 1 receive packet(vectorbasedforward) 6
+ -t 14.837957229 -s 2 -d -1 -p vectorbasedforward -e 50 -c 2 -a 0 -i 7 -k MAC 
- -t 14.837957229 -s 2 -d -1 -p vectorbasedforward -e 50 -c 2 -a 0 -i 7 -k MAC
h -t 14.837957229 -s 2 -d -1 -p vectorbasedforward -e 50 -c 2 -a 0 -i 7 -k MAC -R 1100.000000
v -t 14.837957229 -e sim_annotation 14.837957229 109 node 2 sendout packet (vectorbasedforward) 7
r -t 14.909226668 -s 4 -d -1 -p vectorbasedforward -e 50 -c 2 -a 0 -i 7 -k MAC -R 1100.000000
v -t 14.909226668 -e sim_annotation 14.909226668 110 node 4 receive packet(vectorbasedforward) 7
r -t 14.911950693 -s 1 -d -1 -p vectorbasedforward -e 50 -c 2 -a 0 -i 7 -k MAC -R 1100.000000
v -t 14.911950693 -e sim_annotation 14.911950693 111 node 1 receive packet(vectorbasedforward) 7
r -t 14.913858328 -s 3 -d -1 -p vectorbasedforward -e 50 -c 2 -a 0 -i 7 -k MAC -R 1100.000000
v -t 14.913858328 -e sim_annotation 14.913858328 112 node 3 receive packet(vectorbasedforward) 7
r -t 14.924145251 -s 5 -d -1 -p vectorbasedforward -e 50 -c 2 -a 0 -i 7 -k MAC -R 1100.000000
v -t 14.924145251 -e sim_annotation 14.924145251 113 node 5 receive packet(vectorbasedforward) 7
r -t 14.925097681 -s 0 -d -1 -p vectorbasedforward -e 50 -c 2 -a 0 -i 7 -k MAC -R 1100.000000
v -t 14.925097681 -e sim_annotation 14.925097681 114 node 0 receive packet(vectorbasedforward) 7
+ -t 15.395594214 -s 5 -d -1 -p vectorbasedforward -e 50 -c 2 -a 0 -i 8 -k MAC 
- -t 15.395594214 -s 5 -d -1 -p vectorbasedforward -e 50 -c 2 -a 0 -i 8 -k MAC
h -t 15.395594214 -s 5 -d -1 -p vectorbasedforward -e 50 -c 2 -a 0 -i 8 -k MAC -R 1100.000000
v -t 15.395594214 -e sim_annotation 15.395594214 115 node 5 sendout packet (vectorbasedforward) 8
r -t 15.451924146 -s 4 -d -1 -p vectorbasedforward -e 50 -c 2 -a 0 -i 8 -k MAC -R 1100.000000
v -t 15.451924146 -e sim_annotation 15.451924146 116 node 4 receive packet(vectorbasedforward) 8
r -t 15.463878485 -s 0 -d -1 -p vectorbasedforward -e 50 -c 2 -a 0 -i 8 -k MAC -R 1100.000000
v -t 15.463878485 -e sim_annotation 15.463878485 117 node 0 receive packet(vectorbasedforward) 8
r -t 15.478799152 -s 1 -d -1 -p vectorbasedforward -e 50 -c 2 -a 0 -i 8 -k MAC -R 1100.000000
v -t 15.478799152 -e sim_annotation 15.478799152 118 node 1 receive packet(vectorbasedforward) 8
r -t 15.481782236 -s 2 -d -1 -p vectorbasedforward -e 50 -c 2 -a 0 -i 8 -k MAC -R 1100.000000
v -t 15.481782236 -e sim_annotation 15.481782236 119 node 2 receive packet(vectorbasedforward) 8
r -t 15.484128280 -s 3 -d -1 -p vectorbasedforward -e 50 -c 2 -a 0 -i 8 -k MAC -R 1100.000000
v -t 15.484128280 -e sim_annotation 15.484128280 120 node 3 receive packet(vectorbasedforward) 8
+ -t 15.505342294 -s 1 -d -1 -p vectorbasedforward -e 50 -c 2 -a 0 -i 8 -k MAC 
- -t 15.505342294 -s 1 -d -1 -p vectorbasedforward -e 50 -c 2 -a 0 -i 8 -k MAC
h -t 15.505342294 -s 1 -d -1 -p vectorbasedforward -e 50 -c 2 -a 0 -i 8 -k MAC -R 1100.000000
v -t 15.505342294 -e sim_annotation 15.505342294 121 node 1 sendout packet (vectorbasedforward) 8
r -t 15.576611732 -s 4 -d -1 -p vectorbasedforward -e 50 -c 2 -a 0 -i 8 -k MAC -R 1100.000000
v -t 15.576611732 -e sim_annotation 15.576611732 122 node 4 receive packet(vectorbasedforward) 8
r -t 15.579335757 -s 2 -d -1 -p vectorbasedforward -e 50 -c 2 -a 0 -i 8 -k MAC -R 1100.000000
v -t 15.579335757 -e sim_annotation 15.579335757 123 node 2 receive packet(vectorbasedforward) 8
r -t 15.585342294 -s 0 -d -1 -p vectorbasedforward -e 50 -c 2 -a 0 -i 8 -k MAC -R 1100.000000
v -t 15.585342294 -e sim_annotation 15.585342294 124 node 0 receive packet(vectorbasedforward) 8
r -t 15.588547232 -s 5 -d -1 -p vectorbasedforward -e 50 -c 2 -a 0 -i 8 -k MAC -R 1100.000000
v -t 15.588547232 -e sim_annotation 15.588547232 125 node 5 receive packet(vectorbasedforward) 8
r -t 15.606805924 -s 3 -d -1 -p vectorbasedforward -e 50 -c 2 -a 0 -i 8 -k MAC -R 1100.000000
v -t 15.606805924 -e sim_annotation 15.606805924 126 node 3 receive packet(vectorbasedforward) 8
+ -t 15.934714013 -s 4 -d -1 -p vectorbasedforward -e 50 -c 2 -a 0 -i 9 -k MAC 
- -t 15.934714013 -s 4 -d -1 -p vectorbasedforward -e 50 -c 2 -a 0 -i 9 -k MAC
h -t 15.934714013 -s 4 -d -1 -p vectorbasedforward -e 50 -c 2 -a 0 -i 9 -k MAC -R 1100.000000
v -t 15.934714013 -e sim_annotation 15.934714013 127 node 4 sendout packet (vectorbasedforward) 9
r -t 15.991043944 -s 5 -d -1 -p vectorbasedforward -e 50 -c 2 -a 0 -i 9 -k MAC -R 1100.000000
v -t 15.991043944 -e sim_annotation 15.991043944 128 node 5 receive packet(vectorbasedforward) 9
r -t 16.005983451 -s 2 -d -1 -p vectorbasedforward -e 50 -c 2 -a 0 -i 9 -k MAC -R 1100.000000
v -t 16.005983451 -e sim_annotation 16.005983451 129 node 2 receive packet(vectorbasedforward) 9
r -t 16.005983451 -s 1 -d -1 -p vectorbasedforward -e 50 -c 2 -a 0 -i 9 -k MAC -R 1100.000000
v -t 16.005983451 -e sim_annotation 16.005983451 130 node 1 receive packet(vectorbasedforward) 9
r -t 16.005983451 -s 0 -d -1 -p vectorbasedforward -e 50 -c 2 -a 0 -i 9 -k MAC -R 1100.000000
v -t 16.005983451 -e sim_annotation 16.005983451 131 node 0 receive packet(vectorbasedforward) 9
r -t 16.018430270 -s 3 -d -1 -p vectorbasedforward -e 50 -c 2 -a 0 -i 9 -k MAC -R 1100.000000
v -t 16.018430270 -e sim_annotation 16.018430270 132 node 3 receive packet(vectorbasedforward) 9
+ -t 21.330025000 -s 1 -d -1 -p vectorbasedforward -e 50 -c 2 -a 0 -i 10 -k MAC 
- -t 21.330025000 -s 1 -d -1 -p vectorbasedforward -e 50 -c 2 -a 0 -i 10 -k MAC
h -t 21.330025000 -s 1 -d -1 -p vectorbasedforward -e 50 -c 2 -a 0 -i 10 -k MAC -R 1100.000000
v -t 21.330025000 -e sim_annotation 21.330025000 133 node 1 sendout packet (vectorbasedforward) 10
r -t 21.401294438 -s 4 -d -1 -p vectorbasedforward -e 50 -c 2 -a 0 -i 10 -k MAC -R 1100.000000
v -t 21.401294438 -e sim_annotation 21.401294438 134 node 4 receive packet(vectorbasedforward) 10
r -t 21.404018463 -s 2 -d -1 -p vectorbasedforward -e 50 -c 2 -a 0 -i 10 -k MAC -R 1100.000000
v -t 21.404018463 -e sim_annotation 21.404018463 135 node 2 receive packet(vectorbasedforward) 10
r -t 21.410025000 -s 0 -d -1 -p vectorbasedforward -e 50 -c 2 -a 0 -i 10 -k MAC -R 1100.000000
v -t 21.410025000 -e sim_annotation 21.410025000 136 node 0 receive packet(vectorbasedforward) 10
r -t 21.413229938 -s 5 -d -1 -p vectorbasedforward -e 50 -c 2 -a 0 -i 10 -k MAC -R 1100.000000
v -t 21.413229938 -e sim_annotation 21.413229938 137 node 5 receive packet(vectorbasedforward) 10
r -t 21.431488630 -s 3 -d -1 -p vectorbasedforward -e 50 -c 2 -a 0 -i 10 -k MAC -R 1100.000000