SillyRrouting
M 0.0 nn 8 x 100 y 100 z 0
M 0.0 prop Propagation/UnderwaterPropagation ant Antenna/OmniAntenna
N -t 1.000000 -n 0 -e 9999.992000
N -t 1.000000 -n 1 -e 9999.992000
N -t 1.000000 -n 2 -e 9999.992000
N -t 1.000000 -n 3 -e 9999.992000
N -t 1.000000 -n 4 -e 9999.992000
N -t 1.000000 -n 5 -e 9999.992000
N -t 1.000000 -n 6 -e 9999.992000
N -t 1.000000 -n 7 -e 9999.992000
s 1.073091673 _0_ MAC  --- 0 auv-SYNC 64 [0 0 ffff0000 0] [energy 9999.992000 ei 0.008 es 0.000 et 0.000 er 0.000] ------- [0:0 0:0 0 0] 
r 1.098767449 _2_ MAC  --- 0 auv-SYNC 64 [0 0 ffff0000 0] [energy 9999.988733 ei 0.009 es 0.000 et 0.000 er 0.003] ------- [0:0 0:0 0 0] 
r 1.098792449 _2_ RTR  --- 0 tcp 0 [0 0 0 0] [energy 9999.988733 ei 0.009 es 0.000 et 0.000 er 0.003] ------- [0:0 0:0 0 0] [0 0] 0 0
r 1.112825006 _3_ MAC  --- 0 auv-SYNC 64 [0 0 ffff0000 0] [energy 9999.988621 ei 0.009 es 0.000 et 0.000 er 0.003] ------- [0:0 0:0 0 0] 
r 1.112850006 _3_ RTR  --- 0 tcp 0 [0 0 0 0] [energy 9999.988621 ei 0.009 es 0.000 et 0.000 er 0.003] ------- [0:0 0:0 0 0] [0 0] 0 0
r 1.117209927 _1_ MAC  --- 0 auv-SYNC 64 [0 0 ffff0000 0] [energy 9999.988586 ei 0.009 es 0.000 et 0.000 er 0.003] ------- [0:0 0:0 0 0] 
r 1.117234927 _1_ RTR  --- 0 tcp 0 [0 0 0 0] [energy 9999.988586 ei 0.009 es 0.000 et 0.000 er 0.003] ------- [0:0 0:0 0 0] [0 0] 0 0
r 1.120043423 _6_ MAC  --- 0 auv-SYNC 64 [0 0 ffff0000 0] [energy 9999.988563 ei 0.009 es 0.000 et 0.000 er 0.003] ------- [0:0 0:0 0 0] 
r 1.120068423 _6_ RTR  --- 0 tcp 0 [0 0 0 0] [energy 9999.988563 ei 0.009 es 0.000 et 0.000 er 0.003] ------- [0:0 0:0 0 0] [0 0] 0 0
r 1.127607274 _4_ MAC  --- 0 auv-SYNC 64 [0 0 ffff0000 0] [energy 9999.988502 ei 0.009 es 0.000 et 0.000 er 0.003] ------- [0:0 0:0 0 0] 
r 1.127632274 _4_ RTR  --- 0 tcp 0 [0 0 0 0] [energy 9999.988502 ei 0.009 es 0.000 et 0.000 er 0.003] ------- [0:0 0:0 0 0] [0 0] 0 0
r 1.139860907 _7_ MAC  --- 0 auv-SYNC 64 [0 0 ffff0000 0] [energy 9999.988404 ei 0.009 es 0.000 et 0.000 er 0.003] ------- [0:0 0:0 0 0] 
r 1.139885907 _7_ RTR  --- 0 tcp 0 [0 0 0 0] [energy 9999.988404 ei 0.009 es 0.000 et 0.000 er 0.003] ------- [0:0 0:0 0 0] [0 0] 0 0
r 1.172347595 _5_ MAC  --- 0 auv-SYNC 64 [0 0 ffff0000 0] [energy 9999.988144 ei 0.009 es 0.000 et 0.000 er 0.003] ------- [0:0 0:0 0 0] 
r 1.172372595 _5_ RTR  --- 0 tcp 0 [0 0 0 0] [energy 9999.988144 ei 0.009 es 0.000 et 0.000 er 0.003] ------- [0:0 0:0 0 0] [0 0] 0 0
N -t 2.000000 -n 0 -e 9999.979827
N -t 2.000000 -n 1 -e 9999.981523
N -t 2.000000 -n 2 -e 9999.981523
N -t 2.000000 -n 3 -e 9999.981523
N -t 2.000000 -n 4 -e 9999.981523
N -t 2.000000 -n 5 -e 9999.981523
N -t 2.000000 -n 6 -e 9999.981523
N -t 2.000000 -n 7 -e 9999.981523
s 2.946894683 _1_ MAC  --- 0 auv-SYNC 64 [0 1000000 ffff0000 0] [energy 9999.981523 ei 0.016 es 0.000 et 0.000 er 0.003] ------- [0:0 0:0 0 0] 
r 2.991012937 _0_ MAC  --- 0 auv-SYNC 64 [0 1000000 ffff0000 0] [energy 9999.969422 ei 0.024 es 0.000 et 0.004 er 0.003] ------- [0:0 0:0 0 0] 
r 2.995589942 _2_ MAC  --- 0 auv-SYNC 64 [0 1000000 ffff0000 0] [energy 9999.971082 ei 0.024 es 0.000 et 0.000 er 0.005] ------- [0:0 0:0 0 0] 
r 2.995614942 _2_ RTR  --- 0 tcp 0 [0 0 0 0] [energy 9999.971082 ei 0.024 es 0.000 et 0.000 er 0.005] ------- [0:0 0:0 0 0] [0 0] 0 0
r 2.999966112 _3_ MAC  --- 0 auv-SYNC 64 [0 1000000 ffff0000 0] [energy 9999.971047 ei 0.024 es 0.000 et 0.000 er 0.005] ------- [0:0 0:0 0 0] 
r 2.999991112 _3_ RTR  --- 0 tcp 0 [0 0 0 0] [energy 9999.971047 ei 0.024 es 0.000 et 0.000 er 0.005] ------- [0:0 0:0 0 0] [0 0] 0 0
N -t 3.000000 -n 0 -e 9999.969350
N -t 3.000000 -n 1 -e 9999.969350
N -t 3.000000 -n 2 -e 9999.971046
N -t 3.000000 -n 3 -e 9999.971046
N -t 3.000000 -n 4 -e 9999.973523
N -t 3.000000 -n 5 -e 9999.973523
N -t 3.000000 -n 6 -e 9999.973523
N -t 3.000000 -n 7 -e 9999.973523
r 3.027833264 _6_ MAC  --- 0 auv-SYNC 64 [0 1000000 ffff0000 0] [energy 9999.970824 ei 0.024 es 0.000 et 0.000 er 0.005] ------- [0:0 0:0 0 0] 
r 3.027858264 _6_ RTR  --- 0 tcp 0 [0 0 0 0] [energy 9999.970824 ei 0.024 es 0.000 et 0.000 er 0.005] ------- [0:0 0:0 0 0] [0 0] 0 0
r 3.038680084 _4_ MAC  --- 0 auv-SYNC 64 [0 1000000 ffff0000 0] [energy 9999.970737 ei 0.024 es 0.000 et 0.000 er 0.005] ------- [0:0 0:0 0 0] 
r 3.038705084 _4_ RTR  --- 0 tcp 0 [0 0 0 0] [energy 9999.970737 ei 0.024 es 0.000 et 0.000 er 0.005] ------- [0:0 0:0 0 0] [0 0] 0 0
r 3.046152998 _7_ MAC  --- 0 auv-SYNC 64 [0 1000000 ffff0000 0] [energy 9999.970677 ei 0.024 es 0.000 et 0.000 er 0.005] ------- [0:0 0:0 0 0] 
r 3.046177998 _7_ RTR  --- 0 tcp 0 [0 0 0 0] [energy 9999.970677 ei 0.024 es 0.000 et 0.000 er 0.005] ------- [0:0 0:0 0 0] [0 0] 0 0
r 3.081532310 _5_ MAC  --- 0 auv-SYNC 64 [0 1000000 ffff0000 0] [energy 9999.970394 ei 0.025 es 0.000 et 0.000 er 0.005] ------- [0:0 0:0 0 0] 
r 3.081557310 _5_ RTR  --- 0 tcp 0 [0 0 0 0] [energy 9999.970394 ei 0.025 es 0.000 et 0.000 er 0.005] ------- [0:0 0:0 0 0] [0 0] 0 0
N -t 4.000000 -n 0 -e 9999.961350
N -t 4.000000 -n 1 -e 9999.961350
N -t 4.000000 -n 2 -e 9999.963046
N -t 4.000000 -n 3 -e 9999.963046
N -t 4.000000 -n 4 -e 9999.963046
N -t 4.000000 -n 5 -e 9999.963046
N -t 4.000000 -n 6 -e 9999.963046
N -t 4.000000 -n 7 -e 9999.963046
s 4.398259232 _6_ MAC  --- 0 auv-SYNC 64 [0 6000000 ffff0000 0] [energy 9999.963046 ei 0.032 es 0.000 et 0.000 er 0.005] ------- [0:0 0:0 0 0] 
r 4.438231708 _2_ MAC  --- 0 auv-SYNC 64 [0 6000000 ffff0000 0] [energy 9999.957064 ei 0.035 es 0.000 et 0.000 er 0.008] ------- [0:0 0:0 0 0] 
r 4.438256708 _2_ RTR  --- 0 tcp 0 [0 0 0 0] [energy 9999.957064 ei 0.035 es 0.000 et 0.000 er 0.008] ------- [0:0 0:0 0 0] [0 0] 0 0
r 4.440615996 _4_ MAC  --- 0 auv-SYNC 64 [0 6000000 ffff0000 0] [energy 9999.957045 ei 0.035 es 0.000 et 0.000 er 0.008] ------- [0:0 0:0 0 0] 
r 4.440640996 _4_ RTR  --- 0 tcp 0 [0 0 0 0] [energy 9999.957045 ei 0.035 es 0.000 et 0.000 er 0.008] ------- [0:0 0:0 0 0] [0 0] 0 0
r 4.445210982 _0_ MAC  --- 0 auv-SYNC 64 [0 6000000 ffff0000 0] [energy 9999.955312 ei 0.035 es 0.000 et 0.004 er 0.005] ------- [0:0 0:0 0 0] 
r 4.467552440 _7_ MAC  --- 0 auv-SYNC 64 [0 6000000 ffff0000 0] [energy 9999.956829 ei 0.036 es 0.000 et 0.000 er 0.008] ------- [0:0 0:0 0 0] 
r 4.467577440 _7_ RTR  --- 0 tcp 0 [0 0 0 0] [energy 9999.956829 ei 0.036 es 0.000 et 0.000 er 0.008] ------- [0:0 0:0 0 0] [0 0] 0 0
r 4.472646159 _3_ MAC  --- 0 auv-SYNC 64 [0 6000000 ffff0000 0] [energy 9999.956788 ei 0.036 es 0.000 et 0.000 er 0.008] ------- [0:0 0:0 0 0] 
r 4.472671159 _3_ RTR  --- 0 tcp 0 [0 0 0 0] [energy 9999.956788 ei 0.036 es 0.000 et 0.000 er 0.008] ------- [0:0 0:0 0 0] [0 0] 0 0
r 4.479197813 _1_ MAC  --- 0 auv-SYNC 64 [0 6000000 ffff0000 0] [energy 9999.955040 ei 0.036 es 0.000 et 0.004 er 0.005] ------- [0:0 0:0 0 0] 
r 4.479222813 _1_ RTR  --- 0 tcp 0 [0 0 0 0] [energy 9999.955040 ei 0.036 es 0.000 et 0.004 er 0.005] ------- [0:0 0:0 0 0] [0 0] 0 0
r 4.484936529 _5_ MAC  --- 0 auv-SYNC 64 [0 6000000 ffff0000 0] [energy 9999.956690 ei 0.036 es 0.000 et 0.000 er 0.008] ------- [0:0 0:0 0 0] 
r 4.484961529 _5_ RTR  --- 0 tcp 0 [0 0 0 0] [energy 9999.956690 ei 0.036 es 0.000 et 0.000 er 0.008] ------- [0:0 0:0 0 0] [0 0] 0 0
s 4.791065767 _3_ MAC  --- 0 auv-SYNC 64 [0 3000000 ffff0000 0] [energy 9999.956788 ei 0.036 es 0.000 et 0.000 er 0.008] ------- [0:0 0:0 0 0] 
r 4.830799101 _0_ MAC  --- 0 auv-SYNC 64 [0 3000000 ffff0000 0] [energy 9999.949750 ei 0.038 es 0.000 et 0.004 er 0.008] ------- [0:0 0:0 0 0] 
r 4.844137196 _1_ MAC  --- 0 auv-SYNC 64 [0 3000000 ffff0000 0] [energy 9999.949644 ei 0.039 es 0.000 et 0.004 er 0.008] ------- [0:0 0:0 0 0] 
r 4.844162196 _1_ RTR  --- 0 tcp 0 [0 0 0 0] [energy 9999.949644 ei 0.039 es 0.000 et 0.004 er 0.008] ------- [0:0 0:0 0 0] [0 0] 0 0
r 4.849534098 _7_ MAC  --- 0 auv-SYNC 64 [0 3000000 ffff0000 0] [energy 9999.951297 ei 0.039 es 0.000 et 0.000 er 0.010] ------- [0:0 0:0 0 0] 
r 4.849559098 _7_ RTR  --- 0 tcp 0 [0 0 0 0] [energy 9999.951297 ei 0.039 es 0.000 et 0.000 er 0.010] ------- [0:0 0:0 0 0] [0 0] 0 0
r 4.849687517 _2_ MAC  --- 0 auv-SYNC 64 [0 3000000 ffff0000 0] [energy 9999.951295 ei 0.039 es 0.000 et 0.000 er 0.010] ------- [0:0 0:0 0 0] 
r 4.849712517 _2_ RTR  --- 0 tcp 0 [0 0 0 0] [energy 9999.951295 ei 0.039 es 0.000 et 0.000 er 0.010] ------- [0:0 0:0 0 0] [0 0] 0 0
r 4.854460894 _4_ MAC  --- 0 auv-SYNC 64 [0 3000000 ffff0000 0] [energy 9999.951257 ei 0.039 es 0.000 et 0.000 er 0.010] ------- [0:0 0:0 0 0] 
r 4.854485894 _4_ RTR  --- 0 tcp 0 [0 0 0 0] [energy 9999.951257 ei 0.039 es 0.000 et 0.000 er 0.010] ------- [0:0 0:0 0 0] [0 0] 0 0
r 4.865452694 _6_ MAC  --- 0 auv-SYNC 64 [0 3000000 ffff0000 0] [energy 9999.949473 ei 0.039 es 0.000 et 0.004 er 0.008] ------- [0:0 0:0 0 0] 
r 4.865477694 _6_ RTR  --- 0 tcp 0 [0 0 0 0] [energy 9999.949473 ei 0.039 es 0.000 et 0.004 er 0.008] ------- [0:0 0:0 0 0] [0 0] 0 0
r 4.887156594 _5_ MAC  --- 0 auv-SYNC 64 [0 3000000 ffff0000 0] [energy 9999.950996 ei 0.039 es 0.000 et 0.000 er 0.010] ------- [0:0 0:0 0 0] 
r 4.887181594 _5_ RTR  --- 0 tcp 0 [0 0 0 0] [energy 9999.950996 ei 0.039 es 0.000 et 0.000 er 0.010] ------- [0:0 0:0 0 0] [0 0] 0 0
N -t 5.000000 -n 0 -e 9999.948397
N -t 5.000000 -n 1 -e 9999.948397
N -t 5.000000 -n 2 -e 9999.950093
N -t 5.000000 -n 3 -e 9999.948397
N -t 5.000000 -n 4 -e 9999.950093
N -t 5.000000 -n 5 -e 9999.950093
N -t 5.000000 -n 6 -e 9999.948397
N -t 5.000000 -n 7 -e 9999.950093
N -t 6.000000 -n 0 -e 9999.940397
N -t 6.000000 -n 1 -e 9999.940397
N -t 6.000000 -n 2 -e 9999.942093
N -t 6.000000 -n 3 -e 9999.940397
N -t 6.000000 -n 4 -e 9999.942093
N -t 6.000000 -n 5 -e 9999.942093
N -t 6.000000 -n 6 -e 9999.940397
N -t 6.000000 -n 7 -e 9999.942093
N -t 7.000000 -n 0 -e 9999.932397
N -t 7.000000 -n 1 -e 9999.932397
N -t 7.000000 -n 2 -e 9999.934093
N -t 7.000000 -n 3 -e 9999.932397
N -t 7.000000 -n 4 -e 9999.934093
N -t 7.000000 -n 5 -e 9999.934093
N -t 7.000000 -n 6 -e 9999.932397
N -t 7.000000 -n 7 -e 9999.934093
s 7.208990109 _5_ MAC  --- 0 auv-SYNC 64 [0 5000000 ffff0000 0] [energy 9999.934093 ei 0.056 es 0.000 et 0.000 er 0.010] ------- [0:0 0:0 0 0] 
s 7.238569314 _2_ MAC  --- 0 auv-SYNC 64 [0 2000000 ffff0000 0] [energy 9999.934093 ei 0.056 es 0.000 et 0.000 er 0.010] ------- [0:0 0:0 0 0] 
r 7.253102471 _7_ MAC  --- 0 auv-SYNC 64 [0 5000000 ffff0000 0] [energy 9999.929591 ei 0.058 es 0.000 et 0.000 er 0.013] ------- [0:0 0:0 0 0] 
r 7.253127471 _7_ RTR  --- 0 tcp 0 [0 0 0 0] [energy 9999.929591 ei 0.058 es 0.000 et 0.000 er 0.013] ------- [0:0 0:0 0 0] [0 0] 0 0
r 7.262572969 _4_ MAC  --- 0 auv-SYNC 64 [0 5000000 ffff0000 0] [energy 9999.929515 ei 0.058 es 0.000 et 0.000 er 0.013] ------- [0:0 0:0 0 0] 
r 7.262597969 _4_ RTR  --- 0 tcp 0 [0 0 0 0] [energy 9999.929515 ei 0.058 es 0.000 et 0.000 er 0.013] ------- [0:0 0:0 0 0] [0 0] 0 0
r 7.264245090 _0_ MAC  --- 0 auv-SYNC 64 [0 2000000 ffff0000 0] [energy 9999.927806 ei 0.058 es 0.000 et 0.004 er 0.010] ------- [0:0 0:0 0 0] 
r 7.278541789 _6_ MAC  --- 0 auv-SYNC 64 [0 2000000 ffff0000 0] [energy 9999.927692 ei 0.058 es 0.000 et 0.004 er 0.010] ------- [0:0 0:0 0 0] 
r 7.278566789 _6_ RTR  --- 0 tcp 0 [0 0 0 0] [energy 9999.927692 ei 0.058 es 0.000 et 0.004 er 0.010] ------- [0:0 0:0 0 0] [0 0] 0 0
r 7.287264572 _1_ MAC  --- 0 auv-SYNC 64 [0 2000000 ffff0000 0] [energy 9999.927622 ei 0.058 es 0.000 et 0.004 er 0.010] ------- [0:0 0:0 0 0] 
r 7.287289572 _1_ RTR  --- 0 tcp 0 [0 0 0 0] [energy 9999.927622 ei 0.058 es 0.000 et 0.004 er 0.010] ------- [0:0 0:0 0 0] [0 0] 0 0
r 7.295667406 _6_ MAC  --- 0 auv-SYNC 64 [0 5000000 ffff0000 0] [energy 9999.925078 ei 0.058 es 0.000 et 0.004 er 0.013] ------- [0:0 0:0 0 0] 
r 7.295692406 _6_ RTR  --- 0 tcp 0 [0 0 0 0] [energy 9999.925078 ei 0.058 es 0.000 et 0.004 er 0.013] ------- [0:0 0:0 0 0] [0 0] 0 0
r 7.297191063 _3_ MAC  --- 0 auv-SYNC 64 [0 2000000 ffff0000 0] [energy 9999.927542 ei 0.058 es 0.000 et 0.004 er 0.010] ------- [0:0 0:0 0 0] 
r 7.297216063 _3_ RTR  --- 0 tcp 0 [0 0 0 0] [energy 9999.927542 ei 0.058 es 0.000 et 0.004 er 0.010] ------- [0:0 0:0 0 0] [0 0] 0 0
r 7.299980424 _4_ MAC  --- 0 auv-SYNC 64 [0 2000000 ffff0000 0] [energy 9999.926739 ei 0.058 es 0.000 et 0.000 er 0.015] ------- [0:0 0:0 0 0] 
r 7.300005424 _4_ RTR  --- 0 tcp 0 [0 0 0 0] [energy 9999.926739 ei 0.058 es 0.000 et 0.000 er 0.015] ------- [0:0 0:0 0 0] [0 0] 0 0
r 7.305080936 _3_ MAC  --- 0 auv-SYNC 64 [0 5000000 ffff0000 0] [energy 9999.925003 ei 0.058 es 0.000 et 0.004 er 0.013] ------- [0:0 0:0 0 0] 
r 7.305105936 _3_ RTR  --- 0 tcp 0 [0 0 0 0] [energy 9999.925003 ei 0.058 es 0.000 et 0.004 er 0.013] ------- [0:0 0:0 0 0] [0 0] 0 0
r 7.308246031 _0_ MAC  --- 0 auv-SYNC 64 [0 5000000 ffff0000 0] [energy 9999.924977 ei 0.058 es 0.000 et 0.004 er 0.013] ------- [0:0 0:0 0 0] 
r 7.317448916 _2_ MAC  --- 0 auv-SYNC 64 [0 5000000 ffff0000 0] [energy 9999.924904 ei 0.058 es 0.000 et 0.004 er 0.013] ------- [0:0 0:0 0 0] 
r 7.317473916 _2_ RTR  --- 0 tcp 0 [0 0 0 0] [energy 9999.924904 ei 0.058 es 0.000 et 0.004 er 0.013] ------- [0:0 0:0 0 0] [0 0] 0 0
r 7.318713617 _7_ MAC  --- 0 auv-SYNC 64 [0 2000000 ffff0000 0] [energy 9999.926589 ei 0.058 es 0.000 et 0.000 er 0.015] ------- [0:0 0:0 0 0] 
r 7.318738617 _7_ RTR  --- 0 tcp 0 [0 0 0 0] [energy 9999.926589 ei 0.058 es 0.000 et 0.000 er 0.015] ------- [0:0 0:0 0 0] [0 0] 0 0
r 7.343627736 _1_ MAC  --- 0 auv-SYNC 64 [0 5000000 ffff0000 0] [energy 9999.924694 ei 0.058 es 0.000 et 0.004 er 0.013] ------- [0:0 0:0 0 0] 
r 7.343652736 _1_ RTR  --- 0 tcp 0 [0 0 0 0] [energy 9999.924694 ei 0.058 es 0.000 et 0.004 er 0.013] ------- [0:0 0:0 0 0] [0 0] 0 0
r 7.347028120 _5_ MAC  --- 0 auv-SYNC 64 [0 2000000 ffff0000 0] [energy 9999.924667 ei 0.058 es 0.000 et 0.004 er 0.013] ------- [0:0 0:0 0 0] 
r 7.347053120 _5_ RTR  --- 0 tcp 0 [0 0 0 0] [energy 9999.924667 ei 0.058 es 0.000 et 0.004 er 0.013] ------- [0:0 0:0 0 0] [0 0] 0 0
N -t 8.000000 -n 0 -e 9999.919443
N -t 8.000000 -n 1 -e 9999.919443
N -t 8.000000 -n 2 -e 9999.919443
N -t 8.000000 -n 3 -e 9999.919443
N -t 8.000000 -n 4 -e 9999.921139
N -t 8.000000 -n 5 -e 9999.919443
N -t 8.000000 -n 6 -e 9999.919443
N -t 8.000000 -n 7 -e 9999.921139
s 8.894890511 _7_ MAC  --- 0 auv-SYNC 64 [0 7000000 ffff0000 0] [energy 9999.921139 ei 0.064 es 0.000 et 0.000 er 0.015] ------- [0:0 0:0 0 0] 
r 8.929645405 _4_ MAC  --- 0 auv-SYNC 64 [0 7000000 ffff0000 0] [energy 9999.911225 ei 0.071 es 0.000 et 0.000 er 0.018] ------- [0:0 0:0 0 0] 
r 8.929670405 _4_ RTR  --- 0 tcp 0 [0 0 0 0] [energy 9999.911225 ei 0.071 es 0.000 et 0.000 er 0.018] ------- [0:0 0:0 0 0] [0 0] 0 0
r 8.939002873 _5_ MAC  --- 0 auv-SYNC 64 [0 7000000 ffff0000 0] [energy 9999.909454 ei 0.071 es 0.000 et 0.004 er 0.015] ------- [0:0 0:0 0 0] 
r 8.939027873 _5_ RTR  --- 0 tcp 0 [0 0 0 0] [energy 9999.909454 ei 0.071 es 0.000 et 0.004 er 0.015] ------- [0:0 0:0 0 0] [0 0] 0 0
r 8.953358842 _3_ MAC  --- 0 auv-SYNC 64 [0 7000000 ffff0000 0] [energy 9999.909340 ei 0.071 es 0.000 et 0.004 er 0.015] ------- [0:0 0:0 0 0] 
r 8.953383842 _3_ RTR  --- 0 tcp 0 [0 0 0 0] [energy 9999.909340 ei 0.071 es 0.000 et 0.004 er 0.015] ------- [0:0 0:0 0 0] [0 0] 0 0
r 8.961659745 _0_ MAC  --- 0 auv-SYNC 64 [0 7000000 ffff0000 0] [energy 9999.909273 ei 0.071 es 0.000 et 0.004 er 0.015] ------- [0:0 0:0 0 0] 
r 8.964183719 _6_ MAC  --- 0 auv-SYNC 64 [0 7000000 ffff0000 0] [energy 9999.909253 ei 0.071 es 0.000 et 0.004 er 0.015] ------- [0:0 0:0 0 0] 
r 8.964208719 _6_ RTR  --- 0 tcp 0 [0 0 0 0] [energy 9999.909253 ei 0.071 es 0.000 et 0.004 er 0.015] ------- [0:0 0:0 0 0] [0 0] 0 0
r 8.975034814 _2_ MAC  --- 0 auv-SYNC 64 [0 7000000 ffff0000 0] [energy 9999.909166 ei 0.071 es 0.000 et 0.004 er 0.015] ------- [0:0 0:0 0 0] 
r 8.975059814 _2_ RTR  --- 0 tcp 0 [0 0 0 0] [energy 9999.909166 ei 0.071 es 0.000 et 0.004 er 0.015] ------- [0:0 0:0 0 0] [0 0] 0 0
r 8.994148826 _1_ MAC  --- 0 auv-SYNC 64 [0 7000000 ffff0000 0] [energy 9999.909013 ei 0.072 es 0.000 et 0.004 er 0.015] ------- [0:0 0:0 0 0] 
r 8.994173826 _1_ RTR  --- 0 tcp 0 [0 0 0 0] [energy 9999.909013 ei 0.072 es 0.000 et 0.004 er 0.015] ------- [0:0 0:0 0 0] [0 0] 0 0
N -t 9.000000 -n 0 -e 9999.908966
N -t 9.000000 -n 1 -e 9999.908966
N -t 9.000000 -n 2 -e 9999.908966
N -t 9.000000 -n 3 -e 9999.908966
N -t 9.000000 -n 4 -e 9999.910662
N -t 9.000000 -n 5 -e 9999.908966
N -t 9.000000 -n 6 -e 9999.908966
N -t 9.000000 -n 7 -e 9999.908966
s 9.082793120 _4_ MAC  --- 0 auv-SYNC 64 [0 4000000 ffff0000 0] [energy 9999.910662 ei 0.072 es 0.000 et 0.000 er 0.018] ------- [0:0 0:0 0 0] 
r 9.117548014 _7_ MAC  --- 0 auv-SYNC 64 [0 4000000 ffff0000 0] [energy 9999.905549 ei 0.073 es 0.000 et 0.004 er 0.018] ------- [0:0 0:0 0 0] 
r 9.117573014 _7_ RTR  --- 0 tcp 0 [0 0 0 0] [energy 9999.905549 ei 0.073 es 0.000 et 0.004 er 0.018] ------- [0:0 0:0 0 0] [0 0] 0 0
r 9.125149884 _6_ MAC  --- 0 auv-SYNC 64 [0 4000000 ffff0000 0] [energy 9999.905488 ei 0.073 es 0.000 et 0.004 er 0.018] ------- [0:0 0:0 0 0] 
r 9.125174884 _6_ RTR  --- 0 tcp 0 [0 0 0 0] [energy 9999.905488 ei 0.073 es 0.000 et 0.004 er 0.018] ------- [0:0 0:0 0 0] [0 0] 0 0
r 9.136375979 _5_ MAC  --- 0 auv-SYNC 64 [0 4000000 ffff0000 0] [energy 9999.905399 ei 0.073 es 0.000 et 0.004 er 0.018] ------- [0:0 0:0 0 0] 
r 9.136400979 _5_ RTR  --- 0 tcp 0 [0 0 0 0] [energy 9999.905399 ei 0.073 es 0.000 et 0.004 er 0.018] ------- [0:0 0:0 0 0] [0 0] 0 0
r 9.137308721 _0_ MAC  --- 0 auv-SYNC 64 [0 4000000 ffff0000 0] [energy 9999.905391 ei 0.073 es 0.000 et 0.004 er 0.018] ------- [0:0 0:0 0 0] 
r 9.144204230 _2_ MAC  --- 0 auv-SYNC 64 [0 4000000 ffff0000 0] [energy 9999.905336 ei 0.073 es 0.000 et 0.004 er 0.018] ------- [0:0 0:0 0 0] 
r 9.144229230 _2_ RTR  --- 0 tcp 0 [0 0 0 0] [energy 9999.905336 ei 0.073 es 0.000 et 0.004 er 0.018] ------- [0:0 0:0 0 0] [0 0] 0 0
r 9.146188246 _3_ MAC  --- 0 auv-SYNC 64 [0 4000000 ffff0000 0] [energy 9999.905320 ei 0.073 es 0.000 et 0.004 er 0.018] ------- [0:0 0:0 0 0] 
r 9.146213246 _3_ RTR  --- 0 tcp 0 [0 0 0 0] [energy 9999.905320 ei 0.073 es 0.000 et 0.004 er 0.018] ------- [0:0 0:0 0 0] [0 0] 0 0
r 9.174578521 _1_ MAC  --- 0 auv-SYNC 64 [0 4000000 ffff0000 0] [energy 9999.905093 ei 0.073 es 0.000 et 0.004 er 0.018] ------- [0:0 0:0 0 0] 
r 9.174603521 _1_ RTR  --- 0 tcp 0 [0 0 0 0] [energy 9999.905093 ei 0.073 es 0.000 et 0.004 er 0.018] ------- [0:0 0:0 0 0] [0 0] 0 0
N -t 10.000000 -n 0 -e 9999.898490
N -t 10.000000 -n 1 -e 9999.898490
N -t 10.000000 -n 2 -e 9999.898490
N -t 10.000000 -n 3 -e 9999.898490
N -t 10.000000 -n 4 -e 9999.898490
N -t 10.000000 -n 5 -e 9999.898490
N -t 10.000000 -n 6 -e 9999.898490
N -t 10.000000 -n 7 -e 9999.898490
N -t 11.000000 -n 0 -e 9999.890490
N -t 11.000000 -n 1 -e 9999.890490
N -t 11.000000 -n 2 -e 9999.890490
N -t 11.000000 -n 3 -e 9999.890490
N -t 11.000000 -n 4 -e 9999.890490
N -t 11.000000 -n 5 -e 9999.890490
N -t 11.000000 -n 6 -e 9999.890490
N -t 11.000000 -n 7 -e 9999.890490
s 11.073091673 _0_ MAC  --- 0 auv-SYNC 64 [0 0 ffff0000 0] [energy 9999.890490 ei 0.088 es 0.000 et 0.004 er 0.018] ------- [0:0 0:0 0 0] 
r 11.098767449 _2_ MAC  --- 0 auv-SYNC 64 [0 0 ffff0000 0] [energy 9999.887223 ei 0.088 es 0.000 et 0.004 er 0.020] ------- [0:0 0:0 0 0] 
r 11.098792449 _2_ RTR  --- 0 tcp 0 [0 0 0 0] [energy 9999.887223 ei 0.088 es 0.000 et 0.004 er 0.020] ------- [0:0 0:0 0 0] [0 0] 0 0
r 11.112825006 _3_ MAC  --- 0 auv-SYNC 64 [0 0 ffff0000 0] [energy 9999.887110 ei 0.088 es 0.000 et 0.004 er 0.020] ------- [0:0 0:0 0 0] 
r 11.112850006 _3_ RTR  --- 0 tcp 0 [0 0 0 0] [energy 9999.887110 ei 0.088 es 0.000 et 0.004 er 0.020] ------- [0:0 0:0 0 0] [0 0] 0 0
r 11.117209927 _1_ MAC  --- 0 auv-SYNC 64 [0 0 ffff0000 0] [energy 9999.887075 ei 0.088 es 0.000 et 0.004 er 0.020] ------- [0:0 0:0 0 0] 
r 11.117234927 _1_ RTR  --- 0 tcp 0 [0 0 0 0] [energy 9999.887075 ei 0.088 es 0.000 et 0.004 er 0.020] ------- [0:0 0:0 0 0] [0 0] 0 0
r 11.120043423 _6_ MAC  --- 0 auv-SYNC 64 [0 0 ffff0000 0] [energy 9999.887052 ei 0.088 es 0.000 et 0.004 er 0.020] ------- [0:0 0:0 0 0] 
r 11.120068423 _6_ RTR  --- 0 tcp 0 [0 0 0 0] [energy 9999.887052 ei 0.088 es 0.000 et 0.004 er 0.020] ------- [0:0 0:0 0 0] [0 0] 0 0
r 11.127607274 _4_ MAC  --- 0 auv-SYNC 64 [0 0 ffff0000 0] [energy 9999.886992 ei 0.089 es 0.000 et 0.004 er 0.020] ------- [0:0 0:0 0 0] 
r 11.127632274 _4_ RTR  --- 0 tcp 0 [0 0 0 0] [energy 9999.886992 ei 0.089 es 0.000 et 0.004 er 0.020] ------- [0:0 0:0 0 0] [0 0] 0 0
r 11.139860907 _7_ MAC  --- 0 auv-SYNC 64 [0 0 ffff0000 0] [energy 9999.886894 ei 0.089 es 0.000 et 0.004 er 0.020] ------- [0:0 0:0 0 0] 
r 11.139885907 _7_ RTR  --- 0 tcp 0 [0 0 0 0] [energy 9999.886894 ei 0.089 es 0.000 et 0.004 er 0.020] ------- [0:0 0:0 0 0] [0 0] 0 0
r 11.172347595 _5_ MAC  --- 0 auv-SYNC 64 [0 0 ffff0000 0] [energy 9999.886634 ei 0.089 es 0.000 et 0.004 er 0.020] ------- [0:0 0:0 0 0] 
r 11.172372595 _5_ RTR  --- 0 tcp 0 [0 0 0 0] [energy 9999.886634 ei 0.089 es 0.000 et 0.004 er 0.020] ------- [0:0 0:0 0 0] [0 0] 0 0
N -t 12.000000 -n 0 -e 9999.878317
N -t 12.000000 -n 1 -e 9999.880013
N -t 12.000000 -n 2 -e 9999.880013
N -t 12.000000 -n 3 -e 9999.880013
N -t 12.000000 -n 4 -e 9999.880013
N -t 12.000000 -n 5 -e 9999.880013
N -t 12.000000 -n 6 -e 9999.880013
N -t 12.000000 -n 7 -e 9999.880013
s 12.946894683 _1_ MAC  --- 0 auv-SYNC 64 [0 1000000 ffff0000 0] [energy 9999.876670 ei 0.099 es 0.000 et 0.004 er 0.020] ------- [0:0 0:0 0 0] 
r 12.991012937 _0_ MAC  --- 0 auv-SYNC 64 [0 1000000 ffff0000 0] [energy 9999.867912 ei 0.103 es 0.000 et 0.008 er 0.020] ------- [0:0 0:0 0 0] 
r 12.995589942 _2_ MAC  --- 0 auv-SYNC 64 [0 1000000 ffff0000 0] [energy 9999.869571 ei 0.103 es 0.000 et 0.004 er 0.023] ------- [0:0 0:0 0 0] 
r 12.995614942 _2_ RTR  --- 0 tcp 0 [0 0 0 0] [energy 9999.869571 ei 0.103 es 0.000 et 0.004 er 0.023] ------- [0:0 0:0 0 0] [0 0] 0 0
r 12.999966112 _3_ MAC  --- 0 auv-SYNC 64 [0 1000000 ffff0000 0] [energy 9999.869536 ei 0.103 es 0.000 et 0.004 er 0.023] ------- [0:0 0:0 0 0] 
r 12.999991112 _3_ RTR  --- 0 tcp 0 [0 0 0 0] [energy 9999.869536 ei 0.103 es 0.000 et 0.004 er 0.023] ------- [0:0 0:0 0 0] [0 0] 0 0
N -t 13.000000 -n 0 -e 9999.867840
N -t 13.000000 -n 1 -e 9999.872072
N -t 13.000000 -n 2 -e 9999.869536
N -t 13.000000 -n 3 -e 9999.869536
N -t 13.000000 -n 4 -e 9999.872013
N -t 13.000000 -n 5 -e 9999.872013
N -t 13.000000 -n 6 -e 9999.872013
N -t 13.000000 -n 7 -e 9999.872013
r 13.027833264 _6_ MAC  --- 0 auv-SYNC 64 [0 1000000 ffff0000 0] [energy 9999.869313 ei 0.104 es 0.000 et 0.004 er 0.023] ------- [0:0 0:0 0 0] 
r 13.027858264 _6_ RTR  --- 0 tcp 0 [0 0 0 0] [energy 9999.869313 ei 0.104 es 0.000 et 0.004 er 0.023] ------- [0:0 0:0 0 0] [0 0] 0 0
r 13.038680084 _4_ MAC  --- 0 auv-SYNC 64 [0 1000000 ffff0000 0] [energy 9999.869227 ei 0.104 es 0.000 et 0.004 er 0.023] ------- [0:0 0:0 0 0] 
r 13.038705084 _4_ RTR  --- 0 tcp 0 [0 0 0 0] [energy 9999.869227 ei 0.104 es 0.000 et 0.004 er 0.023] ------- [0:0 0:0 0 0] [0 0] 0 0
r 13.046152998 _7_ MAC  --- 0 auv-SYNC 64 [0 1000000 ffff0000 0] [energy 9999.869167 ei 0.104 es 0.000 et 0.004 er 0.023] ------- [0:0 0:0 0 0] 
r 13.046177998 _7_ RTR  --- 0 tcp 0 [0 0 0 0] [energy 9999.869167 ei 0.104 es 0.000 et 0.004 er 0.023] ------- [0:0 0:0 0 0] [0 0] 0 0
r 13.081532310 _5_ MAC  --- 0 auv-SYNC 64 [0 1000000 ffff0000 0] [energy 9999.868884 ei 0.104 es 0.000 et 0.004 er 0.023] ------- [0:0 0:0 0 0] 
r 13.081557310 _5_ RTR  --- 0 tcp 0 [0 0 0 0] [energy 9999.868884 ei 0.104 es 0.000 et 0.004 er 0.023] ------- [0:0 0:0 0 0] [0 0] 0 0
N -t 14.000000 -n 0 -e 9999.859840
N -t 14.000000 -n 1 -e 9999.864072
N -t 14.000000 -n 2 -e 9999.861536
N -t 14.000000 -n 3 -e 9999.861536
N -t 14.000000 -n 4 -e 9999.861536
N -t 14.000000 -n 5 -e 9999.861536
N -t 14.000000 -n 6 -e 9999.861536
N -t 14.000000 -n 7 -e 9999.861536
s 14.398259232 _6_ MAC  --- 0 auv-SYNC 64 [0 6000000 ffff0000 0] [energy 9999.861536 ei 0.111 es 0.000 et 0.004 er 0.023] ------- [0:0 0:0 0 0] 
r 14.438231708 _2_ MAC  --- 0 auv-SYNC 64 [0 6000000 ffff0000 0] [energy 9999.855553 ei 0.115 es 0.000 et 0.004 er 0.025] ------- [0:0 0:0 0 0] 
r 14.438256708 _2_ RTR  --- 0 tcp 0 [0 0 0 0] [energy 9999.855553 ei 0.115 es 0.000 et 0.004 er 0.025] ------- [0:0 0:0 0 0] [0 0] 0 0
r 14.440615996 _4_ MAC  --- 0 auv-SYNC 64 [0 6000000 ffff0000 0] [energy 9999.855534 ei 0.115 es 0.000 et 0.004 er 0.025] ------- [0:0 0:0 0 0] 
r 14.440640996 _4_ RTR  --- 0 tcp 0 [0 0 0 0] [energy 9999.855534 ei 0.115 es 0.000 et 0.004 er 0.025] ------- [0:0 0:0 0 0] [0 0] 0 0
r 14.445210982 _0_ MAC  --- 0 auv-SYNC 64 [0 6000000 ffff0000 0] [energy 9999.853802 ei 0.115 es 0.000 et 0.008 er 0.023] ------- [0:0 0:0 0 0] 
r 14.467552440 _7_ MAC  --- 0 auv-SYNC 64 [0 6000000 ffff0000 0] [energy 9999.855319 ei 0.115 es 0.000 et 0.004 er 0.025] ------- [0:0 0:0 0 0] 
r 14.467577440 _7_ RTR  --- 0 tcp 0 [0 0 0 0] [energy 9999.855319 ei 0.115 es 0.000 et 0.004 er 0.025] ------- [0:0 0:0 0 0] [0 0] 0 0
r 14.472646159 _3_ MAC  --- 0 auv-SYNC 64 [0 6000000 ffff0000 0] [energy 9999.855278 ei 0.115 es 0.000 et 0.004 er 0.025] ------- [0:0 0:0 0 0] 
r 14.472671159 _3_ RTR  --- 0 tcp 0 [0 0 0 0] [energy 9999.855278 ei 0.115 es 0.000 et 0.004 er 0.025] ------- [0:0 0:0 0 0] [0 0] 0 0
r 14.479197813 _1_ MAC  --- 0 auv-SYNC 64 [0 6000000 ffff0000 0] [energy 9999.857762 ei 0.111 es 0.000 et 0.008 er 0.023] ------- [0:0 0:0 0 0] 
r 14.479222813 _1_ RTR  --- 0 tcp 0 [0 0 0 0] [energy 9999.857762 ei 0.111 es 0.000 et 0.008 er 0.023] ------- [0:0 0:0 0 0] [0 0] 0 0
r 14.484936529 _5_ MAC  --- 0 auv-SYNC 64 [0 6000000 ffff0000 0] [energy 9999.855180 ei 0.115 es 0.000 et 0.004 er 0.025] ------- [0:0 0:0 0 0] 
r 14.484961529 _5_ RTR  --- 0 tcp 0 [0 0 0 0] [energy 9999.855180 ei 0.115 es 0.000 et 0.004 er 0.025] ------- [0:0 0:0 0 0] [0 0] 0 0
s 14.791065767 _3_ MAC  --- 0 auv-SYNC 64 [0 3000000 ffff0000 0] [energy 9999.855278 ei 0.115 es 0.000 et 0.004 er 0.025] ------- [0:0 0:0 0 0] 
r 14.830799101 _0_ MAC  --- 0 auv-SYNC 64 [0 3000000 ffff0000 0] [energy 9999.848240 ei 0.118 es 0.000 et 0.008 er 0.025] ------- [0:0 0:0 0 0] 
r 14.844137196 _1_ MAC  --- 0 auv-SYNC 64 [0 3000000 ffff0000 0] [energy 9999.852365 ei 0.114 es 0.000 et 0.008 er 0.025] ------- [0:0 0:0 0 0] 
r 14.844162196 _1_ RTR  --- 0 tcp 0 [0 0 0 0] [energy 9999.852365 ei 0.114 es 0.000 et 0.008 er 0.025] ------- [0:0 0:0 0 0] [0 0] 0 0
r 14.849534098 _7_ MAC  --- 0 auv-SYNC 64 [0 3000000 ffff0000 0] [energy 9999.849786 ei 0.118 es 0.000 et 0.004 er 0.028] ------- [0:0 0:0 0 0] 
r 14.849559098 _7_ RTR  --- 0 tcp 0 [0 0 0 0] [energy 9999.849786 ei 0.118 es 0.000 et 0.004 er 0.028] ------- [0:0 0:0 0 0] [0 0] 0 0
r 14.849687517 _2_ MAC  --- 0 auv-SYNC 64 [0 3000000 ffff0000 0] [energy 9999.849785 ei 0.118 es 0.000 et 0.004 er 0.028] ------- [0:0 0:0 0 0] 
r 14.849712517 _2_ RTR  --- 0 tcp 0 [0 0 0 0] [energy 9999.849785 ei 0.118 es 0.000 et 0.004 er 0.028] ------- [0:0 0:0 0 0] [0 0] 0 0
r 14.854460894 _4_ MAC  --- 0 auv-SYNC 64 [0 3000000 ffff0000 0] [energy 9999.849747 ei 0.118 es 0.000 et 0.004 er 0.028] ------- [0:0 0:0 0 0] 
r 14.854485894 _4_ RTR  --- 0 tcp 0 [0 0 0 0] [energy 9999.849747 ei 0.118 es 0.000 et 0.004 er 0.028] ------- [0:0 0:0 0 0] [0 0] 0 0
r 14.865452694 _6_ MAC  --- 0 auv-SYNC 64 [0 3000000 ffff0000 0] [energy 9999.847963 ei 0.118 es 0.000 et 0.008 er 0.025] ------- [0:0 0:0 0 0] 
r 14.865477694 _6_ RTR  --- 0 tcp 0 [0 0 0 0] [energy 9999.847963 ei 0.118 es 0.000 et 0.008 er 0.025] ------- [0:0 0:0 0 0] [0 0] 0 0
r 14.887156594 _5_ MAC  --- 0 auv-SYNC 64 [0 3000000 ffff0000 0] [energy 9999.849485 ei 0.118 es 0.000 et 0.004 er 0.028] ------- [0:0 0:0 0 0] 
r 14.887181594 _5_ RTR  --- 0 tcp 0 [0 0 0 0] [energy 9999.849485 ei 0.118 es 0.000 et 0.004 er 0.028] ------- [0:0 0:0 0 0] [0 0] 0 0
N -t 15.000000 -n 0 -e 9999.846886
N -t 15.000000 -n 1 -e 9999.851119
N -t 15.000000 -n 2 -e 9999.848582
N -t 15.000000 -n 3 -e 9999.846886
N -t 15.000000 -n 4 -e 9999.848582
N -t 15.000000 -n 5 -e 9999.848582
N -t 15.000000 -n 6 -e 9999.846886
N -t 15.000000 -n 7 -e 9999.848582
N -t 16.000000 -n 0 -e 9999.838886
N -t 16.000000 -n 1 -e 9999.843119
N -t 16.000000 -n 2 -e 9999.840582
N -t 16.000000 -n 3 -e 9999.838886
N -t 16.000000 -n 4 -e 9999.840582
N -t 16.000000 -n 5 -e 9999.840582
N -t 16.000000 -n 6 -e 9999.838886
N -t 16.000000 -n 7 -e 9999.840582
N -t 17.000000 -n 0 -e 9999.831949
N -t 17.000000 -n 1 -e 9999.836258
N -t 17.000000 -n 2 -e 9999.833919
N -t 17.000000 -n 3 -e 9999.830886
N -t 17.000000 -n 4 -e 9999.833442
N -t 17.000000 -n 5 -e 9999.833856
N -t 17.000000 -n 6 -e 9999.830886
N -t 17.000000 -n 7 -e 9999.833406
s 17.208990109 _5_ MAC  --- 0 auv-SYNC 64 [0 5000000 ffff0000 0] [energy 9999.833856 ei 0.134 es 0.000 et 0.004 er 0.028] ------- [0:0 0:0 0 0] 
s 17.238569314 _2_ MAC  --- 0 auv-SYNC 64 [0 2000000 ffff0000 0] [energy 9999.833919 ei 0.134 es 0.000 et 0.004 er 0.028] ------- [0:0 0:0 0 0] 
r 17.253102471 _7_ MAC  --- 0 auv-SYNC 64 [0 5000000 ffff0000 0] [energy 9999.828904 ei 0.137 es 0.000 et 0.004 er 0.030] ------- [0:0 0:0 0 0] 
r 17.253127471 _7_ RTR  --- 0 tcp 0 [0 0 0 0] [energy 9999.828904 ei 0.137 es 0.000 et 0.004 er 0.030] ------- [0:0 0:0 0 0] [0 0] 0 0
r 17.262572969 _4_ MAC  --- 0 auv-SYNC 64 [0 5000000 ffff0000 0] [energy 9999.828865 ei 0.137 es 0.000 et 0.004 er 0.030] ------- [0:0 0:0 0 0] 
r 17.262597969 _4_ RTR  --- 0 tcp 0 [0 0 0 0] [energy 9999.828865 ei 0.137 es 0.000 et 0.004 er 0.030] ------- [0:0 0:0 0 0] [0 0] 0 0
r 17.264245090 _0_ MAC  --- 0 auv-SYNC 64 [0 2000000 ffff0000 0] [energy 9999.827358 ei 0.136 es 0.000 et 0.008 er 0.028] ------- [0:0 0:0 0 0] 
r 17.278541789 _6_ MAC  --- 0 auv-SYNC 64 [0 2000000 ffff0000 0] [energy 9999.826181 ei 0.138 es 0.000 et 0.008 er 0.028] ------- [0:0 0:0 0 0] 
r 17.278566789 _6_ RTR  --- 0 tcp 0 [0 0 0 0] [energy 9999.826181 ei 0.138 es 0.000 et 0.008 er 0.028] ------- [0:0 0:0 0 0] [0 0] 0 0
r 17.287264572 _1_ MAC  --- 0 auv-SYNC 64 [0 2000000 ffff0000 0] [energy 9999.831483 ei 0.132 es 0.000 et 0.008 er 0.028] ------- [0:0 0:0 0 0] 