SillyRrouting
M 0.0 nn 8 x 100 y 100 z 0
M 0.0 prop Propagation/UnderwaterPropagation ant Antenna/OmniAntenna
s 0.402791323 _6_ MAC  --- 0 auv-SYNC 64 [0 6000000 ffff0000 0] [energy 10000.000000 ei 0.000 es 0.000 et 0.000 er 0.000] ------- [0:0 0:0 0 0] 
N -t 1.000000 -n 0 -e 9999.989523
N -t 1.000000 -n 1 -e 9999.989523
N -t 1.000000 -n 2 -e 9999.989523
N -t 1.000000 -n 3 -e 9999.989523
N -t 1.000000 -n 4 -e 9999.989523
N -t 1.000000 -n 5 -e 9999.989523
N -t 1.000000 -n 6 -e 9999.987827
N -t 1.000000 -n 7 -e 9999.989523
N -t 2.000000 -n 0 -e 9999.981523
N -t 2.000000 -n 1 -e 9999.981523
N -t 2.000000 -n 2 -e 9999.981523
N -t 2.000000 -n 3 -e 9999.981523
N -t 2.000000 -n 4 -e 9999.981523
N -t 2.000000 -n 5 -e 9999.981523
N -t 2.000000 -n 6 -e 9999.979827
N -t 2.000000 -n 7 -e 9999.981523
s 2.467810272 _3_ MAC  --- 0 auv-SYNC 64 [0 3000000 ffff0000 0] [energy 9999.981523 ei 0.016 es 0.000 et 0.000 er 0.003] ------- [0:0 0:0 0 0] 
s 2.987487006 _1_ MAC  --- 0 auv-SYNC 64 [0 1000000 ffff0000 0] [energy 9999.974879 ei 0.020 es 0.000 et 0.000 er 0.005] ------- [0:0 0:0 0 0] 
N -t 3.000000 -n 0 -e 9999.971046
N -t 3.000000 -n 1 -e 9999.966874
N -t 3.000000 -n 2 -e 9999.971046
N -t 3.000000 -n 3 -e 9999.969350
N -t 3.000000 -n 4 -e 9999.971046
N -t 3.000000 -n 5 -e 9999.971046
N -t 3.000000 -n 6 -e 9999.969350
N -t 3.000000 -n 7 -e 9999.971046
N -t 4.000000 -n 0 -e 9999.960570
N -t 4.000000 -n 1 -e 9999.958874
N -t 4.000000 -n 2 -e 9999.960570
N -t 4.000000 -n 3 -e 9999.958874
N -t 4.000000 -n 4 -e 9999.960570
N -t 4.000000 -n 5 -e 9999.960570
N -t 4.000000 -n 6 -e 9999.958874
N -t 4.000000 -n 7 -e 9999.960570
s 4.202547146 _5_ MAC  --- 0 auv-SYNC 64 [0 5000000 ffff0000 0] [energy 9999.960570 ei 0.032 es 0.000 et 0.000 er 0.008] ------- [0:0 0:0 0 0] 
N -t 5.000000 -n 0 -e 9999.950093
N -t 5.000000 -n 1 -e 9999.948397
N -t 5.000000 -n 2 -e 9999.950093
N -t 5.000000 -n 3 -e 9999.948397
N -t 5.000000 -n 4 -e 9999.950093
N -t 5.000000 -n 5 -e 9999.948397
N -t 5.000000 -n 6 -e 9999.948397
N -t 5.000000 -n 7 -e 9999.950093
N -t 6.000000 -n 0 -e 9999.942093
N -t 6.000000 -n 1 -e 9999.940397
N -t 6.000000 -n 2 -e 9999.942093
N -t 6.000000 -n 3 -e 9999.940397
N -t 6.000000 -n 4 -e 9999.942093
N -t 6.000000 -n 5 -e 9999.940397
N -t 6.000000 -n 6 -e 9999.940397
N -t 6.000000 -n 7 -e 9999.942093
s 6.722897090 _7_ MAC  --- 0 auv-SYNC 64 [0 7000000 ffff0000 0] [energy 9999.942093 ei 0.048 es 0.000 et 0.000 er 0.010] ------- [0:0 0:0 0 0] 
N -t 7.000000 -n 0 -e 9999.931616
N -t 7.000000 -n 1 -e 9999.929920
N -t 7.000000 -n 2 -e 9999.931616
N -t 7.000000 -n 3 -e 9999.929920
N -t 7.000000 -n 4 -e 9999.931616
N -t 7.000000 -n 5 -e 9999.929920
N -t 7.000000 -n 6 -e 9999.929920
N -t 7.000000 -n 7 -e 9999.929920
s 7.369608637 _4_ MAC  --- 0 auv-SYNC 64 [0 4000000 ffff0000 0] [energy 9999.931616 ei 0.056 es 0.000 et 0.000 er 0.013] ------- [0:0 0:0 0 0] 
N -t 8.000000 -n 0 -e 9999.921139
N -t 8.000000 -n 1 -e 9999.919443
N -t 8.000000 -n 2 -e 9999.921139
N -t 8.000000 -n 3 -e 9999.919443
N -t 8.000000 -n 4 -e 9999.919443
N -t 8.000000 -n 5 -e 9999.919443
N -t 8.000000 -n 6 -e 9999.919443
N -t 8.000000 -n 7 -e 9999.919443
s 8.654201845 _0_ MAC  --- 0 auv-SYNC 64 [0 0 ffff0000 0] [energy 9999.921139 ei 0.064 es 0.000 et 0.000 er 0.015] ------- [0:0 0:0 0 0] 
N -t 9.000000 -n 0 -e 9999.908966
N -t 9.000000 -n 1 -e 9999.908966
N -t 9.000000 -n 2 -e 9999.910662
N -t 9.000000 -n 3 -e 9999.908966
N -t 9.000000 -n 4 -e 9999.908966
N -t 9.000000 -n 5 -e 9999.908966
N -t 9.000000 -n 6 -e 9999.908966
N -t 9.000000 -n 7 -e 9999.908966
s 9.823956178 _2_ MAC  --- 0 auv-SYNC 64 [0 2000000 ffff0000 0] [energy 9999.910662 ei 0.072 es 0.000 et 0.000 er 0.018] ------- [0:0 0:0 0 0] 
N -t 10.000000 -n 0 -e 9999.898490
N -t 10.000000 -n 1 -e 9999.898490
N -t 10.000000 -n 2 -e 9999.898490
N -t 10.000000 -n 3 -e 9999.898490
N -t 10.000000 -n 4 -e 9999.898490
N -t 10.000000 -n 5 -e 9999.898490
N -t 10.000000 -n 6 -e 9999.898490
N -t 10.000000 -n 7 -e 9999.898490
s 10.402791323 _6_ MAC  --- 0 auv-SYNC 64 [0 6000000 ffff0000 0] [energy 9999.898490 ei 0.080 es 0.000 et 0.004 er 0.018] ------- [0:0 0:0 0 0] 
N -t 11.000000 -n 0 -e 9999.888013
N -t 11.000000 -n 1 -e 9999.888013
N -t 11.000000 -n 2 -e 9999.888013
N -t 11.000000 -n 3 -e 9999.888013
N -t 11.000000 -n 4 -e 9999.888013
N -t 11.000000 -n 5 -e 9999.888013
N -t 11.000000 -n 6 -e 9999.886317
N -t 11.000000 -n 7 -e 9999.888013
N -t 12.000000 -n 0 -e 9999.880013
N -t 12.000000 -n 1 -e 9999.880013
N -t 12.000000 -n 2 -e 9999.880013
N -t 12.000000 -n 3 -e 9999.880013
N -t 12.000000 -n 4 -e 9999.880013
N -t 12.000000 -n 5 -e 9999.880013
N -t 12.000000 -n 6 -e 9999.878317
N -t 12.000000 -n 7 -e 9999.880013
s 12.467810272 _3_ MAC  --- 0 auv-SYNC 64 [0 3000000 ffff0000 0] [energy 9999.880013 ei 0.096 es 0.000 et 0.004 er 0.020] ------- [0:0 0:0 0 0] 
s 12.987487006 _1_ MAC  --- 0 auv-SYNC 64 [0 1000000 ffff0000 0] [energy 9999.873369 ei 0.100 es 0.000 et 0.004 er 0.023] ------- [0:0 0:0 0 0] 
N -t 13.000000 -n 0 -e 9999.869536
N -t 13.000000 -n 1 -e 9999.865363
N -t 13.000000 -n 2 -e 9999.869536
N -t 13.000000 -n 3 -e 9999.867840
N -t 13.000000 -n 4 -e 9999.869536
N -t 13.000000 -n 5 -e 9999.869536
N -t 13.000000 -n 6 -e 9999.867840
N -t 13.000000 -n 7 -e 9999.869536
N -t 14.000000 -n 0 -e 9999.859059
N -t 14.000000 -n 1 -e 9999.857363
N -t 14.000000 -n 2 -e 9999.859059
N -t 14.000000 -n 3 -e 9999.857363
N -t 14.000000 -n 4 -e 9999.859059
N -t 14.000000 -n 5 -e 9999.859059
N -t 14.000000 -n 6 -e 9999.857363
N -t 14.000000 -n 7 -e 9999.859059
s 14.202547146 _5_ MAC  --- 0 auv-SYNC 64 [0 5000000 ffff0000 0] [energy 9999.859059 ei 0.111 es 0.000 et 0.004 er 0.025] ------- [0:0 0:0 0 0] 
N -t 15.000000 -n 0 -e 9999.848582
N -t 15.000000 -n 1 -e 9999.846886
N -t 15.000000 -n 2 -e 9999.848582
N -t 15.000000 -n 3 -e 9999.846886
N -t 15.000000 -n 4 -e 9999.848582
N -t 15.000000 -n 5 -e 9999.846886
N -t 15.000000 -n 6 -e 9999.846886
N -t 15.000000 -n 7 -e 9999.848582
N -t 16.000000 -n 0 -e 9999.840582
N -t 16.000000 -n 1 -e 9999.838886
N -t 16.000000 -n 2 -e 9999.840582
N -t 16.000000 -n 3 -e 9999.838886
N -t 16.000000 -n 4 -e 9999.840582
N -t 16.000000 -n 5 -e 9999.838886
N -t 16.000000 -n 6 -e 9999.838886
N -t 16.000000 -n 7 -e 9999.840582
s 16.722897090 _7_ MAC  --- 0 auv-SYNC 64 [0 7000000 ffff0000 0] [energy 9999.837004 ei 0.131 es 0.000 et 0.004 er 0.028] ------- [0:0 0:0 0 0] 
N -t 17.000000 -n 0 -e 9999.831603
N -t 17.000000 -n 1 -e 9999.829884
N -t 17.000000 -n 2 -e 9999.831637
N -t 17.000000 -n 3 -e 9999.829866
N -t 17.000000 -n 4 -e 9999.831712
N -t 17.000000 -n 5 -e 9999.829720
N -t 17.000000 -n 6 -e 9999.830028
N -t 17.000000 -n 7 -e 9999.830614
s 17.369608637 _4_ MAC  --- 0 auv-SYNC 64 [0 4000000 ffff0000 0] [energy 9999.831712 ei 0.134 es 0.000 et 0.004 er 0.030] ------- [0:0 0:0 0 0] 
N -t 18.000000 -n 0 -e 9999.821126
N -t 18.000000 -n 1 -e 9999.819407
N -t 18.000000 -n 2 -e 9999.821160
N -t 18.000000 -n 3 -e 9999.819389
N -t 18.000000 -n 4 -e 9999.819540
N -t 18.000000 -n 5 -e 9999.819243
N -t 18.000000 -n 6 -e 9999.819551
N -t 18.000000 -n 7 -e 9999.820137
s 18.654201845 _0_ MAC  --- 0 auv-SYNC 64 [0 0 ffff0000 0] [energy 9999.821126 ei 0.142 es 0.000 et 0.004 er 0.033] ------- [0:0 0:0 0 0] 
N -t 19.000000 -n 0 -e 9999.808954
N -t 19.000000 -n 1 -e 9999.808930
N -t 19.000000 -n 2 -e 9999.810683
N -t 19.000000 -n 3 -e 9999.808912
N -t 19.000000 -n 4 -e 9999.809063
N -t 19.000000 -n 5 -e 9999.808766
N -t 19.000000 -n 6 -e 9999.809074
N -t 19.000000 -n 7 -e 9999.809661
s 19.823956178 _2_ MAC  --- 0 vectorbasedforward 1696 [0 2000000 8 0] [energy 9999.810683 ei 0.150 es 0.000 et 0.004 er 0.035] ------- [2:0 2:255 0 3] 
N -t 20.000000 -n 0 -e 9999.735216
N -t 20.000000 -n 1 -e 9999.735008
N -t 20.000000 -n 2 -e 9999.692104
N -t 20.000000 -n 3 -e 9999.734911
N -t 20.000000 -n 4 -e 9999.735039
N -t 20.000000 -n 5 -e 9999.734366
N -t 20.000000 -n 6 -e 9999.735222
N -t 20.000000 -n 7 -e 9999.735487
r 20.045777927 _3_ MAC  --- 0 vectorbasedforward 1696 [0 2000000 8 0] [energy 9999.734911 ei 0.157 es 0.000 et 0.008 er 0.100] ------- [2:0 2:255 0 3] 
N -t 21.000000 -n 0 -e 9999.727318
N -t 21.000000 -n 1 -e 9999.727295
N -t 21.000000 -n 2 -e 9999.684104
N -t 21.000000 -n 3 -e 9999.727277
N -t 21.000000 -n 4 -e 9999.727428
N -t 21.000000 -n 5 -e 9999.727131
N -t 21.000000 -n 6 -e 9999.727439
N -t 21.000000 -n 7 -e 9999.728025
N -t 22.000000 -n 0 -e 9999.719318
N -t 22.000000 -n 1 -e 9999.719295
N -t 22.000000 -n 2 -e 9999.676104
N -t 22.000000 -n 3 -e 9999.719277
N -t 22.000000 -n 4 -e 9999.719428
N -t 22.000000 -n 5 -e 9999.719131
N -t 22.000000 -n 6 -e 9999.719439
N -t 22.000000 -n 7 -e 9999.720025
s 22.236577185 _1_ MAC  --- 0 auv-SYNC 64 [0 1000000 ffff0000 0] [energy 9999.718709 ei 0.173 es 0.000 et 0.008 er 0.100] ------- [0:0 0:0 0 0] 
N -t 23.000000 -n 0 -e 9999.709885
N -t 23.000000 -n 1 -e 9999.708429
N -t 23.000000 -n 2 -e 9999.666112
N -t 23.000000 -n 3 -e 9999.709652
N -t 23.000000 -n 4 -e 9999.710089
N -t 23.000000 -n 5 -e 9999.709759
N -t 23.000000 -n 6 -e 9999.710186
N -t 23.000000 -n 7 -e 9999.710597
s 23.269151280 _5_ MAC  --- 0 auv-SYNC 64 [0 5000000 ffff0000 0] [energy 9999.709759 ei 0.179 es 0.000 et 0.008 er 0.102] ------- [0:0 0:0 0 0] 
N -t 24.000000 -n 0 -e 9999.699408
N -t 24.000000 -n 1 -e 9999.697952
N -t 24.000000 -n 2 -e 9999.655635
N -t 24.000000 -n 3 -e 9999.699175
N -t 24.000000 -n 4 -e 9999.699613
N -t 24.000000 -n 5 -e 9999.697587
N -t 24.000000 -n 6 -e 9999.699709
N -t 24.000000 -n 7 -e 9999.700120
N -t 25.000000 -n 0 -e 9999.691408
N -t 25.000000 -n 1 -e 9999.689952
N -t 25.000000 -n 2 -e 9999.647635
N -t 25.000000 -n 3 -e 9999.691175
N -t 25.000000 -n 4 -e 9999.691613
N -t 25.000000 -n 5 -e 9999.689587
N -t 25.000000 -n 6 -e 9999.691709
N -t 25.000000 -n 7 -e 9999.692120
s 25.686196025 _3_ MAC  --- 0 auv-SYNC 64 [0 3000000 ffff0000 0] [energy 9999.686648 ei 0.200 es 0.000 et 0.008 er 0.105] ------- [0:0 0:0 0 0] 
N -t 26.000000 -n 0 -e 9999.681386
N -t 26.000000 -n 1 -e 9999.679753
N -t 26.000000 -n 2 -e 9999.637691
N -t 26.000000 -n 3 -e 9999.679964
N -t 26.000000 -n 4 -e 9999.682145
N -t 26.000000 -n 5 -e 9999.680010
N -t 26.000000 -n 6 -e 9999.682065
N -t 26.000000 -n 7 -e 9999.682689
s 26.844183324 _2_ MAC  --- 0 auv-SYNC 64 [0 2000000 ffff0000 0] [energy 9999.637691 ei 0.203 es 0.000 et 0.116 er 0.043] ------- [0:0 0:0 0 0] 
N -t 27.000000 -n 0 -e 9999.670909
N -t 27.000000 -n 1 -e 9999.669277
N -t 27.000000 -n 2 -e 9999.625518
N -t 27.000000 -n 3 -e 9999.669488
N -t 27.000000 -n 4 -e 9999.671669
N -t 27.000000 -n 5 -e 9999.669533
N -t 27.000000 -n 6 -e 9999.671588
N -t 27.000000 -n 7 -e 9999.672213
N -t 28.000000 -n 0 -e 9999.662909
N -t 28.000000 -n 1 -e 9999.661277
N -t 28.000000 -n 2 -e 9999.617518
N -t 28.000000 -n 3 -e 9999.661488
N -t 28.000000 -n 4 -e 9999.663669
N -t 28.000000 -n 5 -e 9999.661533
N -t 28.000000 -n 6 -e 9999.663588
N -t 28.000000 -n 7 -e 9999.664213
N -t 29.000000 -n 0 -e 9999.654909
N -t 29.000000 -n 1 -e 9999.653277
N -t 29.000000 -n 2 -e 9999.609518
N -t 29.000000 -n 3 -e 9999.653488
N -t 29.000000 -n 4 -e 9999.655669
N -t 29.000000 -n 5 -e 9999.653533
N -t 29.000000 -n 6 -e 9999.655588
N -t 29.000000 -n 7 -e 9999.656213
s 29.939071525 _0_ MAC  --- 0 auv-SYNC 64 [0 0 ffff0000 0] [energy 9999.653039 ei 0.229 es 0.000 et 0.008 er 0.110] ------- [0:0 0:0 0 0] 
N -t 30.000000 -n 0 -e 9999.648379
N -t 30.000000 -n 1 -e 9999.647811
N -t 30.000000 -n 2 -e 9999.604800
N -t 30.000000 -n 3 -e 9999.647908
N -t 30.000000 -n 4 -e 9999.650185
N -t 30.000000 -n 5 -e 9999.650507
N -t 30.000000 -n 6 -e 9999.650215
N -t 30.000000 -n 7 -e 9999.650630
N -t 31.000000 -n 0 -e 9999.640379
N -t 31.000000 -n 1 -e 9999.639811
N -t 31.000000 -n 2 -e 9999.596800
N -t 31.000000 -n 3 -e 9999.639908
N -t 31.000000 -n 4 -e 9999.642185
N -t 31.000000 -n 5 -e 9999.640031
N -t 31.000000 -n 6 -e 9999.642215
N -t 31.000000 -n 7 -e 9999.642677
s 31.610230798 _2_ MAC  --- 0 auv-SYNC 64 [0 2000000 ffff0000 0] [energy 9999.596800 ei 0.237 es 0.000 et 0.120 er 0.046] ------- [0:0 0:0 0 0] 
N -t 32.000000 -n 0 -e 9999.629902
N -t 32.000000 -n 1 -e 9999.629335
N -t 32.000000 -n 2 -e 9999.584628
N -t 32.000000 -n 3 -e 9999.629431
N -t 32.000000 -n 4 -e 9999.631708
N -t 32.000000 -n 5 -e 9999.629554
N -t 32.000000 -n 6 -e 9999.631738
N -t 32.000000 -n 7 -e 9999.632200
N -t 33.000000 -n 0 -e 9999.621902
N -t 33.000000 -n 1 -e 9999.621335
N -t 33.000000 -n 2 -e 9999.576628
N -t 33.000000 -n 3 -e 9999.621431
N -t 33.000000 -n 4 -e 9999.623708
N -t 33.000000 -n 5 -e 9999.621554
N -t 33.000000 -n 6 -e 9999.623738
N -t 33.000000 -n 7 -e 9999.624200
s 35.570017314 _5_ MAC  --- 0 auv-SYNC 64 [0 5000000 ffff0000 0] [energy 9999.614199 ei 0.261 es 0.000 et 0.013 er 0.112] ------- [0:0 0:0 0 0] 
s 49.963774871 _4_ MAC  --- 0 auv-SYNC 64 [0 4000000 ffff0000 0] [energy 9999.595847 ei 0.278 es 0.000 et 0.008 er 0.118] ------- [0:0 0:0 0 0] 
s 54.576552004 _7_ MAC  --- 0 auv-SYNC 64 [0 7000000 ffff0000 0] [energy 9999.575308 ei 0.296 es 0.000 et 0.008 er 0.120] ------- [0:0 0:0 0 0] 
s 60.001000000 _6_ MAC  --- 0 auv-SYNC 64 [0 6000000 ffff0000 0] [energy 9999.554285 ei 0.315 es 0.000 et 0.008 er 0.123] ------- [0:0 0:0 0 0] 
s 72.236577185 _1_ MAC  --- 0 auv-SYNC 64 [0 1000000 ffff0000 0] [energy 9999.530929 ei 0.334 es 0.000 et 0.013 er 0.123] ------- [0:0 0:0 0 0] 
s 75.686196025 _3_ MAC  --- 0 auv-SYNC 64 [0 3000000 ffff0000 0] [energy 9999.510064 ei 0.352 es 0.000 et 0.013 er 0.125] ------- [0:0 0:0 0 0] 
s 79.939071525 _0_ MAC  --- 0 auv-SYNC 64 [0 0 ffff0000 0] [energy 9999.489917 ei 0.370 es 0.000 et 0.013 er 0.128] ------- [0:0 0:0 0 0] 
s 81.610230798 _2_ MAC  --- 1 vectorbasedforward 1696 [0 2000000 8 0] [energy 9999.440771 ei 0.371 es 0.000 et 0.125 er 0.063] ------- [2:0 2:255 0 3] 
r 81.832052547 _3_ MAC  --- 1 vectorbasedforward 1696 [0 2000000 8 0] [energy 9999.403748 ei 0.385 es 0.000 et 0.017 er 0.195] ------- [2:0 2:255 0 3] 
s 85.570017314 _5_ MAC  --- 0 auv-SYNC 64 [0 5000000 ffff0000 0] [energy 9999.387250 ei 0.401 es 0.000 et 0.017 er 0.195] ------- [0:0 0:0 0 0] 
s 99.963774871 _4_ MAC  --- 0 auv-SYNC 64 [0 4000000 ffff0000 0] [energy 9999.368917 ei 0.419 es 0.000 et 0.013 er 0.200] ------- [0:0 0:0 0 0] 
s 104.576552004 _7_ MAC  --- 0 auv-SYNC 64 [0 7000000 ffff0000 0] [energy 9999.348325 ei 0.437 es 0.000 et 0.013 er 0.202] ------- [0:0 0:0 0 0] 
s 110.001000000 _6_ MAC  --- 0 auv-SYNC 64 [0 6000000 ffff0000 0] [energy 9999.327466 ei 0.455 es 0.000 et 0.013 er 0.205] ------- [0:0 0:0 0 0] 
s 122.236577185 _1_ MAC  --- 0 auv-SYNC 64 [0 1000000 ffff0000 0] [energy 9999.304017 ei 0.474 es 0.000 et 0.017 er 0.205] ------- [0:0 0:0 0 0] 
s 125.686196025 _3_ MAC  --- 0 auv-SYNC 64 [0 3000000 ffff0000 0] [energy 9999.283038 ei 0.493 es 0.000 et 0.017 er 0.207] ------- [0:0 0:0 0 0] 
s 129.939071525 _0_ MAC  --- 0 auv-SYNC 64 [0 0 ffff0000 0] [energy 9999.263636 ei 0.510 es 0.000 et 0.017 er 0.210] ------- [0:0 0:0 0 0] 
s 131.610230798 _2_ MAC  --- 2 vectorbasedforward 1696 [0 2000000 8 0] [energy 9999.170053 ei 0.513 es 0.000 et 0.237 er 0.081] ------- [2:0 2:255 0 3] 
r 131.832052547 _3_ MAC  --- 2 vectorbasedforward 1696 [0 2000000 8 0] [energy 9999.176722 ei 0.525 es 0.000 et 0.021 er 0.277] ------- [2:0 2:255 0 3] 
s 135.570017314 _5_ MAC  --- 0 auv-SYNC 64 [0 5000000 ffff0000 0] [energy 9999.158995 ei 0.543 es 0.000 et 0.021 er 0.277] ------- [0:0 0:0 0 0] 
s 149.963774871 _4_ MAC  --- 0 auv-SYNC 64 [0 4000000 ffff0000 0] [energy 9999.140681 ei 0.561 es 0.000 et 0.017 er 0.282] ------- [0:0 0:0 0 0] 
s 154.576552004 _7_ MAC  --- 0 auv-SYNC 64 [0 7000000 ffff0000 0] [energy 9999.120037 ei 0.579 es 0.000 et 0.017 er 0.284] ------- [0:0 0:0 0 0] 
s 160.001000000 _6_ MAC  --- 0 auv-SYNC 64 [0 6000000 ffff0000 0] [energy 9999.099340 ei 0.597 es 0.000 et 0.017 er 0.287] ------- [0:0 0:0 0 0] 
s 172.236577185 _1_ MAC  --- 0 auv-SYNC 64 [0 1000000 ffff0000 0] [energy 9999.075800 ei 0.616 es 0.000 et 0.021 er 0.287] ------- [0:0 0:0 0 0] 
s 175.686196025 _3_ MAC  --- 0 auv-SYNC 64 [0 3000000 ffff0000 0] [energy 9999.054706 ei 0.635 es 0.000 et 0.021 er 0.289] ------- [0:0 0:0 0 0] 
s 179.939071525 _0_ MAC  --- 0 auv-SYNC 64 [0 0 ffff0000 0] [energy 9999.036050 ei 0.651 es 0.000 et 0.021 er 0.292] ------- [0:0 0:0 0 0] 
s 181.610230798 _2_ MAC  --- 3 vectorbasedforward 1696 [0 2000000 8 0] [energy 9998.899335 ei 0.654 es 0.000 et 0.348 er 0.099] ------- [2:0 2:255 0 3] 
r 181.832052547 _3_ MAC  --- 3 vectorbasedforward 1696 [0 2000000 8 0] [energy 9998.948390 ei 0.667 es 0.000 et 0.025 er 0.359] ------- [2:0 2:255 0 3] 
s 185.570017314 _5_ MAC  --- 0 auv-SYNC 64 [0 5000000 ffff0000 0] [energy 9998.930741 ei 0.685 es 0.000 et 0.025 er 0.359] ------- [0:0 0:0 0 0] 
s 199.963774871 _4_ MAC  --- 0 auv-SYNC 64 [0 4000000 ffff0000 0] [energy 9998.912444 ei 0.702 es 0.000 et 0.021 er 0.364] ------- [0:0 0:0 0 0] 
s 204.576552004 _7_ MAC  --- 0 auv-SYNC 64 [0 7000000 ffff0000 0] [energy 9998.891749 ei 0.721 es 0.000 et 0.021 er 0.367] ------- [0:0 0:0 0 0] 
s 210.001000000 _6_ MAC  --- 0 auv-SYNC 64 [0 6000000 ffff0000 0] [energy 9998.871215 ei 0.739 es 0.000 et 0.021 er 0.369] ------- [0:0 0:0 0 0] 
s 222.236577185 _1_ MAC  --- 0 auv-SYNC 64 [0 1000000 ffff0000 0] [energy 9998.847582 ei 0.758 es 0.000 et 0.025 er 0.369] ------- [0:0 0:0 0 0] 
s 225.686196025 _3_ MAC  --- 0 auv-SYNC 64 [0 3000000 ffff0000 0] [energy 9998.826374 ei 0.777 es 0.000 et 0.025 er 0.372] ------- [0:0 0:0 0 0] 
s 229.939071525 _0_ MAC  --- 0 auv-SYNC 64 [0 0 ffff0000 0] [energy 9998.808463 ei 0.792 es 0.000 et 0.025 er 0.374] ------- [0:0 0:0 0 0] 
s 231.610230798 _2_ MAC  --- 4 vectorbasedforward 1696 [0 2000000 8 0] [energy 9998.628617 ei 0.795 es 0.000 et 0.460 er 0.116] ------- [2:0 2:255 0 3] 
r 231.832052547 _3_ MAC  --- 4 vectorbasedforward 1696 [0 2000000 8 0] [energy 9998.720057 ei 0.809 es 0.000 et 0.030 er 0.441] ------- [2:0 2:255 0 3] 
s 235.570017314 _5_ MAC  --- 0 auv-SYNC 64 [0 5000000 ffff0000 0] [energy 9998.702486 ei 0.827 es 0.000 et 0.030 er 0.441] ------- [0:0 0:0 0 0] 
s 249.963774871 _4_ MAC  --- 0 auv-SYNC 64 [0 4000000 ffff0000 0] [energy 9998.684208 ei 0.844 es 0.000 et 0.025 er 0.446] ------- [0:0 0:0 0 0] 
s 254.576552004 _7_ MAC  --- 0 auv-SYNC 64 [0 7000000 ffff0000 0] [energy 9998.663461 ei 0.862 es 0.000 et 0.025 er 0.449] ------- [0:0 0:0 0 0] 
s 260.001000000 _6_ MAC  --- 0 auv-SYNC 64 [0 6000000 ffff0000 0] [energy 9998.643090 ei 0.880 es 0.000 et 0.025 er 0.451] ------- [0:0 0:0 0 0] 
s 272.236577185 _1_ MAC  --- 0 auv-SYNC 64 [0 1000000 ffff0000 0] [energy 9998.619364 ei 0.900 es 0.000 et 0.030 er 0.451] ------- [0:0 0:0 0 0] 
s 275.686196025 _3_ MAC  --- 0 auv-SYNC 64 [0 3000000 ffff0000 0] [energy 9998.598041 ei 0.919 es 0.000 et 0.030 er 0.454] ------- [0:0 0:0 0 0] 
s 279.939071525 _0_ MAC  --- 0 auv-SYNC 64 [0 0 ffff0000 0] [energy 9998.580877 ei 0.933 es 0.000 et 0.030 er 0.456] ------- [0:0 0:0 0 0] 
s 281.610230798 _2_ MAC  --- 5 vectorbasedforward 1696 [0 2000000 8 0] [energy 9998.357899 ei 0.936 es 0.000 et 0.572 er 0.134] ------- [2:0 2:255 0 3] 
r 281.832052547 _3_ MAC  --- 5 vectorbasedforward 1696 [0 2000000 8 0] [energy 9998.491725 ei 0.951 es 0.000 et 0.034 er 0.523] ------- [2:0 2:255 0 3] 
s 285.570017314 _5_ MAC  --- 0 auv-SYNC 64 [0 5000000 ffff0000 0] [energy 9998.474231 ei 0.969 es 0.000 et 0.034 er 0.523] ------- [0:0 0:0 0 0] 
s 299.963774871 _4_ MAC  --- 0 auv-SYNC 64 [0 4000000 ffff0000 0] [energy 9998.455972 ei 0.986 es 0.000 et 0.030 er 0.528] ------- [0:0 0:0 0 0] 
s 304.576552004 _7_ MAC  --- 0 auv-SYNC 64 [0 7000000 ffff0000 0] [energy 9998.435173 ei 1.004 es 0.000 et 0.030 er 0.531] ------- [0:0 0:0 0 0] 
s 310.001000000 _6_ MAC  --- 0 auv-SYNC 64 [0 6000000 ffff0000 0] [energy 9998.414965 ei 1.022 es 0.000 et 0.030 er 0.533] ------- [0:0 0:0 0 0] 
s 322.236577185 _1_ MAC  --- 0 auv-SYNC 64 [0 1000000 ffff0000 0] [energy 9998.391147 ei 1.042 es 0.000 et 0.034 er 0.533] ------- [0:0 0:0 0 0] 
s 325.686196025 _3_ MAC  --- 0 auv-SYNC 64 [0 3000000 ffff0000 0] [energy 9998.369709 ei 1.061 es 0.000 et 0.034 er 0.536] ------- [0:0 0:0 0 0] 
s 329.939071525 _0_ MAC  --- 0 auv-SYNC 64 [0 0 ffff0000 0] [energy 9998.353291 ei 1.074 es 0.000 et 0.034 er 0.538] ------- [0:0 0:0 0 0] 
s 331.610230798 _2_ MAC  --- 6 vectorbasedforward 1696 [0 2000000 8 0] [energy 9998.087181 ei 1.077 es 0.000 et 0.684 er 0.152] ------- [2:0 2:255 0 3] 
r 331.832052547 _3_ MAC  --- 6 vectorbasedforward 1696 [0 2000000 8 0] [energy 9998.263393 ei 1.093 es 0.000 et 0.038 er 0.605] ------- [2:0 2:255 0 3] 
s 335.570017314 _5_ MAC  --- 0 auv-SYNC 64 [0 5000000 ffff0000 0] [energy 9998.245977 ei 1.111 es 0.000 et 0.038 er 0.605] ------- [0:0 0:0 0 0] 
s 349.963774871 _4_ MAC  --- 0 auv-SYNC 64 [0 4000000 ffff0000 0] [energy 9998.227736 ei 1.128 es 0.000 et 0.034 er 0.611] ------- [0:0 0:0 0 0] 
s 354.576552004 _7_ MAC  --- 0 auv-SYNC 64 [0 7000000 ffff0000 0] [energy 9998.206885 ei 1.146 es 0.000 et 0.034 er 0.613] ------- [0:0 0:0 0 0] 
s 360.001000000 _6_ MAC  --- 0 auv-SYNC 64 [0 6000000 ffff0000 0] [energy 9998.186840 ei 1.164 es 0.000 et 0.034 er 0.616] ------- [0:0 0:0 0 0] 
s 372.236577185 _1_ MAC  --- 0 auv-SYNC 64 [0 1000000 ffff0000 0] [energy 9998.162929 ei 1.183 es 0.000 et 0.038 er 0.616] ------- [0:0 0:0 0 0] 
s 375.686196025 _3_ MAC  --- 0 auv-SYNC 64 [0 3000000 ffff0000 0] [energy 9998.141377 ei 1.203 es 0.000 et 0.038 er 0.618] ------- [0:0 0:0 0 0] 
s 379.939071525 _0_ MAC  --- 0 auv-SYNC 64 [0 0 ffff0000 0] [energy 9998.125704 ei 1.216 es 0.000 et 0.038 er 0.621] ------- [0:0 0:0 0 0] 
s 381.610230798 _2_ MAC  --- 7 vectorbasedforward 1696 [0 2000000 8 0] [energy 9997.816463 ei 1.218 es 0.000 et 0.796 er 0.169] ------- [2:0 2:255 0 3] 
r 381.832052547 _3_ MAC  --- 7 vectorbasedforward 1696 [0 2000000 8 0] [energy 9998.035061 ei 1.235 es 0.000 et 0.042 er 0.688] ------- [2:0 2:255 0 3] 
s 385.570017314 _5_ MAC  --- 0 auv-SYNC 64 [0 5000000 ffff0000 0] [energy 9998.017722 ei 1.252 es 0.000 et 0.042 er 0.688] ------- [0:0 0:0 0 0] 
s 399.963774871 _4_ MAC  --- 0 auv-SYNC 64 [0 4000000 ffff0000 0] [energy 9997.999500 ei 1.270 es 0.000 et 0.038 er 0.693] ------- [0:0 0:0 0 0] 
s 404.576552004 _7_ MAC  --- 0 auv-SYNC 64 [0 7000000 ffff0000 0] [energy 9997.978597 ei 1.288 es 0.000 et 0.038 er 0.695] ------- [0:0 0:0 0 0] 
s 410.001000000 _6_ MAC  --- 0 auv-SYNC 64 [0 6000000 ffff0000 0] [energy 9997.958714 ei 1.306 es 0.000 et 0.038 er 0.698] ------- [0:0 0:0 0 0] 
s 422.236577185 _1_ MAC  --- 0 auv-SYNC 64 [0 1000000 ffff0000 0] [energy 9997.934712 ei 1.325 es 0.000 et 0.042 er 0.698] ------- [0:0 0:0 0 0] 
s 425.686196025 _3_ MAC  --- 0 auv-SYNC 64 [0 3000000 ffff0000 0] [energy 9997.913045 ei 1.344 es 0.000 et 0.042 er 0.700] ------- [0:0 0:0 0 0] 
s 429.939071525 _0_ MAC  --- 0 auv-SYNC 64 [0 0 ffff0000 0] [energy 9997.898118 ei 1.357 es 0.000 et 0.042 er 0.703] ------- [0:0 0:0 0 0] 
s 431.610230798 _2_ MAC  --- 8 vectorbasedforward 1696 [0 2000000 8 0] [energy 9997.545745 ei 1.359 es 0.000 et 0.908 er 0.187] ------- [2:0 2:255 0 3] 
r 431.832052547 _3_ MAC  --- 8 vectorbasedforward 1696 [0 2000000 8 0] [energy 9997.806729 ei 1.377 es 0.000 et 0.046 er 0.770] ------- [2:0 2:255 0 3] 
s 435.570017314 _5_ MAC  --- 0 auv-SYNC 64 [0 5000000 ffff0000 0] [energy 9997.789467 ei 1.394 es 0.000 et 0.046 er 0.770] ------- [0:0 0:0 0 0] 
s 449.963774871 _4_ MAC  --- 0 auv-SYNC 64 [0 4000000 ffff0000 0] [energy 9997.771264 ei 1.412 es 0.000 et 0.042 er 0.775] ------- [0:0 0:0 0 0] 
s 454.576552004 _7_ MAC  --- 0 auv-SYNC 64 [0 7000000 ffff0000 0] [energy 9997.750309 ei 1.430 es 0.000 et 0.042 er 0.777] ------- [0:0 0:0 0 0] 
s 460.001000000 _6_ MAC  --- 0 auv-SYNC 64 [0 6000000 ffff0000 0] [energy 9997.730589 ei 1.447 es 0.000 et 0.042 er 0.780] ------- [0:0 0:0 0 0] 
s 472.236577185 _1_ MAC  --- 0 auv-SYNC 64 [0 1000000 ffff0000 0] [energy 9997.706494 ei 1.467 es 0.000 et 0.046 er 0.780] ------- [0:0 0:0 0 0] 
s 475.686196025 _3_ MAC  --- 0 auv-SYNC 64 [0 3000000 ffff0000 0] [energy 9997.684713 ei 1.486 es 0.000 et 0.046 er 0.782] ------- [0:0 0:0 0 0] 
s 479.939071525 _0_ MAC  --- 0 auv-SYNC 64 [0 0 ffff0000 0] [energy 9997.670531 ei 1.498 es 0.000 et 0.046 er 0.785] ------- [0:0 0:0 0 0] 
s 481.610230798 _2_ MAC  --- 9 vectorbasedforward 1696 [0 2000000 8 0] [energy 9997.275027 ei 1.500 es 0.000 et 1.020 er 0.205] ------- [2:0 2:255 0 3] 
r 481.832052547 _3_ MAC  --- 9 vectorbasedforward 1696 [0 2000000 8 0] [energy 9997.578397 ei 1.519 es 0.000 et 0.051 er 0.852] ------- [2:0 2:255 0 3] 
s 485.570017314 _5_ MAC  --- 0 auv-SYNC 64 [0 5000000 ffff0000 0] [energy 9997.561213 ei 1.536 es 0.000 et 0.051 er 0.852] ------- [0:0 0:0 0 0] 
s 499.963774871 _4_ MAC  --- 0 auv-SYNC 64 [0 4000000 ffff0000 0] [energy 9997.543027 ei 1.554 es 0.000 et 0.046 er 0.857] ------- [0:0 0:0 0 0] 
s 504.576552004 _7_ MAC  --- 0 auv-SYNC 64 [0 7000000 ffff0000 0] [energy 9997.522021 ei 1.572 es 0.000 et 0.046 er 0.860] ------- [0:0 0:0 0 0] 
s 510.001000000 _6_ MAC  --- 0 auv-SYNC 64 [0 6000000 ffff0000 0] [energy 9997.502464 ei 1.589 es 0.000 et 0.046 er 0.862] ------- [0:0 0:0 0 0] 
s 522.236577185 _1_ MAC  --- 0 auv-SYNC 64 [0 1000000 ffff0000 0] [energy 9997.478276 ei 1.609 es 0.000 et 0.051 er 0.862] ------- [0:0 0:0 0 0] 
s 525.686196025 _3_ MAC  --- 0 auv-SYNC 64 [0 3000000 ffff0000 0] [energy 9997.456381 ei 1.628 es 0.000 et 0.051 er 0.865] ------- [0:0 0:0 0 0] 
s 529.939071525 _0_ MAC  --- 0 auv-SYNC 64 [0 0 ffff0000 0] [energy 9997.442945 ei 1.639 es 0.000 et 0.051 er 0.867] ------- [0:0 0:0 0 0] 
s 531.610230798 _2_ MAC  --- 10 vectorbasedforward 1696 [0 2000000 8 0] [energy 9997.004309 ei 1.641 es 0.000 et 1.132 er 0.222] ------- [2:0 2:255 0 3] 
r 531.832052547 _3_ MAC  --- 10 vectorbasedforward 1696 [0 2000000 8 0] [energy 9997.350065 ei 1.661 es 0.000 et 0.055 er 0.934] ------- [2:0 2:255 0 3] 
s 535.570017314 _5_ MAC  --- 0 auv-SYNC 64 [0 5000000 ffff0000 0] [energy 9997.332958 ei 1.678 es 0.000 et 0.055 er 0.934] ------- [0:0 0:0 0 0] 
s 549.963774871 _4_ MAC  --- 0 auv-SYNC 64 [0 4000000 ffff0000 0] [energy 9997.314791 ei 1.695 es 0.000 et 0.051 er 0.939] ------- [0:0 0:0 0 0] 
s 554.576552004 _7_ MAC  --- 0 auv-SYNC 64 [0 7000000 ffff0000 0] [energy 9997.293733 ei 1.714 es 0.000 et 0.051 er 0.942] ------- [0:0 0:0 0 0] 
s 560.001000000 _6_ MAC  --- 0 auv-SYNC 64 [0 6000000 ffff0000 0] [energy 9997.274339 ei 1.731 es 0.000 et 0.051 er 0.944] ------- [0:0 0:0 0 0] 
s 572.236577185 _1_ MAC  --- 0 auv-SYNC 64 [0 1000000 ffff0000 0] [energy 9997.250059 ei 1.751 es 0.000 et 0.055 er 0.944] ------- [0:0 0:0 0 0] 
s 575.686196025 _3_ MAC  --- 0 auv-SYNC 64 [0 3000000 ffff0000 0] [energy 9997.228049 ei 1.770 es 0.000 et 0.055 er 0.947] ------- [0:0 0:0 0 0] 
s 579.939071525 _0_ MAC  --- 0 auv-SYNC 64 [0 0 ffff0000 0] [energy 9997.215358 ei 1.780 es 0.000 et 0.055 er 0.949] ------- [0:0 0:0 0 0] 
s 581.610230798 _2_ MAC  --- 11 vectorbasedforward 1696 [0 2000000 8 0] [energy 9996.733591 ei 1.782 es 0.000 et 1.244 er 0.240] ------- [2:0 2:255 0 3] 
r 581.832052547 _3_ MAC  --- 11 vectorbasedforward 1696 [0 2000000 8 0] [energy 9997.121733 ei 1.803 es 0.000 et 0.059 er 1.016] ------- [2:0 2:255 0 3] 
s 585.570017314 _5_ MAC  --- 0 auv-SYNC 64 [0 5000000 ffff0000 0] [energy 9997.104704 ei 1.820 es 0.000 et 0.059 er 1.016] ------- [0:0 0:0 0 0] 
s 599.963774871 _4_ MAC  --- 0 auv-SYNC 64 [0 4000000 ffff0000 0] [energy 9997.086555 ei 1.837 es 0.000 et 0.055 er 1.021] ------- [0:0 0:0 0 0] 
s 604.576552004 _7_ MAC  --- 0 auv-SYNC 64 [0 7000000 ffff0000 0] [energy 9997.065445 ei 1.856 es 0.000 et 0.055 er 1.024] ------- [0:0 0:0 0 0] 
s 610.001000000 _6_ MAC  --- 0 auv-SYNC 64 [0 6000000 ffff0000 0] [energy 9997.046214 ei 1.873 es 0.000 et 0.055 er 1.026] ------- [0:0 0:0 0 0] 
s 622.236577185 _1_ MAC  --- 0 auv-SYNC 64 [0 1000000 ffff0000 0] [energy 9997.021841 ei 1.893 es 0.000 et 0.059 er 1.026] ------- [0:0 0:0 0 0] 
s 625.686196025 _3_ MAC  --- 0 auv-SYNC 64 [0 3000000 ffff0000 0] [energy 9996.999717 ei 1.912 es 0.000 et 0.059 er 1.029] ------- [0:0 0:0 0 0] 
s 629.939071525 _0_ MAC  --- 0 auv-SYNC 64 [0 0 ffff0000 0] [energy 9996.987772 ei 1.922 es 0.000 et 0.059 er 1.031] ------- [0:0 0:0 0 0] 
s 631.610230798 _2_ MAC  --- 12 vectorbasedforward 1696 [0 2000000 8 0] [energy 9996.462873 ei 1.923 es 0.000 et 1.356 er 0.258] ------- [2:0 2:255 0 3] 
r 631.832052547 _3_ MAC  --- 12 vectorbasedforward 1696 [0 2000000 8 0] [energy 9996.893400 ei 1.945 es 0.000 et 0.063 er 1.098] ------- [2:0 2:255 0 3] 
s 635.570017314 _5_ MAC  --- 0 auv-SYNC 64 [0 5000000 ffff0000 0] [energy 9996.876449 ei 1.962 es 0.000 et 0.063 er 1.098] ------- [0:0 0:0 0 0] 
s 649.963774871 _4_ MAC  --- 0 auv-SYNC 64 [0 4000000 ffff0000 0] [energy 9996.858319 ei 1.979 es 0.000 et 0.059 er 1.103] ------- [0:0 0:0 0 0] 
s 654.576552004 _7_ MAC  --- 0 auv-SYNC 64 [0 7000000 ffff0000 0] [energy 9996.837157 ei 1.998 es 0.000 et 0.059 er 1.106] ------- [0:0 0:0 0 0] 
s 660.001000000 _6_ MAC  --- 0 auv-SYNC 64 [0 6000000 ffff0000 0] [energy 9996.818089 ei 2.014 es 0.000 et 0.059 er 1.109] ------- [0:0 0:0 0 0] 
s 672.236577185 _1_ MAC  --- 0 auv-SYNC 64 [0 1000000 ffff0000 0] [energy 9996.793623 ei 2.034 es 0.000 et 0.063 er 1.109] ------- [0:0 0:0 0 0] 
s 675.686196025 _3_ MAC  --- 0 auv-SYNC 64 [0 3000000 ffff0000 0] [energy 9996.771384 ei 2.054 es 0.000 et 0.063 er 1.111] ------- [0:0 0:0 0 0] 
s 679.939071525 _0_ MAC  --- 0 auv-SYNC 64 [0 0 ffff0000 0] [energy 9996.760186 ei 2.063 es 0.000 et 0.063 er 1.114] ------- [0:0 0:0 0 0] 
s 681.610230798 _2_ MAC  --- 13 vectorbasedforward 1696 [0 2000000 8 0] [energy 9996.192155 ei 2.064 es 0.000 et 1.468 er 0.276] ------- [2:0 2:255 0 3] 
r 681.832052547 _3_ MAC  --- 13 vectorbasedforward 1696 [0 2000000 8 0] [energy 9996.665068 ei 2.087 es 0.000 et 0.068 er 1.181] ------- [2:0 2:255 0 3] 
s 685.570017314 _5_ MAC  --- 0 auv-SYNC 64 [0 5000000 ffff0000 0] [energy 9996.648194 ei 2.104 es 0.000 et 0.068 er 1.181] ------- [0:0 0:0 0 0] 