n -t * -s 0  -x 70 -y 70 -Z 0 -z 10  -v circle -c green
n -t * -s 1  -x 30 -y 30 -Z 1 -z 10  -v circle -c green
n -t * -s 2  -x 90 -y 50 -Z 6 -z 10  -v circle -c green
n -t * -s 3  -x 30 -y 100 -Z 0 -z 10  -v circle -c green
n -t * -s 4  -x 110 -y 130 -Z 3 -z 10  -v circle -c green
n -t * -s 5  -x 120 -y 200 -Z 0 -z 10  -v circle -c green
n -t * -s 6  -x 130 -y 80 -Z 0 -z 10  -v circle -c green
n -t * -s 7  -x 80 -y 160 -Z 0 -z 10  -v circle -c green
V -t * -v 1.0a5 -a 0
W -t * -x 100 -y 100
A -t * -n 1 -p 0 -o 0xffffffff -c 31 -a 1
A -t * -h 1 -m 2147483647 -s 0
+ -t 1.270442631 -s 7 -d -1 -p auv-SYNC -e 64 -c 2 -a 0 -i 0 -k MAC 
- -t 1.270442631 -s 7 -d -1 -p auv-SYNC -e 64 -c 2 -a 0 -i 0 -k MAC
h -t 1.270442631 -s 7 -d -1 -p auv-SYNC -e 64 -c 2 -a 0 -i 0 -k MAC -R 1100.000000
v -t 1.270442631 -e sim_annotation 1.270442631 1 node 7 sendout packet (auv-SYNC) 0
+ -t 1.480533887 -s 4 -d -1 -p auv-SYNC -e 64 -c 2 -a 0 -i 0 -k MAC 
- -t 1.480533887 -s 4 -d -1 -p auv-SYNC -e 64 -c 2 -a 0 -i 0 -k MAC
h -t 1.480533887 -s 4 -d -1 -p auv-SYNC -e 64 -c 2 -a 0 -i 0 -k MAC -R 1100.000000
v -t 1.480533887 -e sim_annotation 1.480533887 2 node 4 sendout packet (auv-SYNC) 0
+ -t 2.212340491 -s 5 -d -1 -p auv-SYNC -e 64 -c 2 -a 0 -i 0 -k MAC 
- -t 2.212340491 -s 5 -d -1 -p auv-SYNC -e 64 -c 2 -a 0 -i 0 -k MAC
h -t 2.212340491 -s 5 -d -1 -p auv-SYNC -e 64 -c 2 -a 0 -i 0 -k MAC -R 1100.000000
v -t 2.212340491 -e sim_annotation 2.212340491 3 node 5 sendout packet (auv-SYNC) 0
+ -t 2.857230760 -s 0 -d -1 -p auv-SYNC -e 64 -c 2 -a 0 -i 0 -k MAC 
- -t 2.857230760 -s 0 -d -1 -p auv-SYNC -e 64 -c 2 -a 0 -i 0 -k MAC
h -t 2.857230760 -s 0 -d -1 -p auv-SYNC -e 64 -c 2 -a 0 -i 0 -k MAC -R 1100.000000
v -t 2.857230760 -e sim_annotation 2.857230760 4 node 0 sendout packet (auv-SYNC) 0
+ -t 3.406486699 -s 3 -d -1 -p auv-SYNC -e 64 -c 2 -a 0 -i 0 -k MAC 
- -t 3.406486699 -s 3 -d -1 -p auv-SYNC -e 64 -c 2 -a 0 -i 0 -k MAC
h -t 3.406486699 -s 3 -d -1 -p auv-SYNC -e 64 -c 2 -a 0 -i 0 -k MAC -R 1100.000000
v -t 3.406486699 -e sim_annotation 3.406486699 5 node 3 sendout packet (auv-SYNC) 0
+ -t 5.841741586 -s 6 -d -1 -p auv-SYNC -e 64 -c 2 -a 0 -i 0 -k MAC 
- -t 5.841741586 -s 6 -d -1 -p auv-SYNC -e 64 -c 2 -a 0 -i 0 -k MAC
h -t 5.841741586 -s 6 -d -1 -p auv-SYNC -e 64 -c 2 -a 0 -i 0 -k MAC -R 1100.000000
v -t 5.841741586 -e sim_annotation 5.841741586 6 node 6 sendout packet (auv-SYNC) 0
+ -t 7.048083731 -s 1 -d -1 -p auv-SYNC -e 64 -c 2 -a 0 -i 0 -k MAC 
- -t 7.048083731 -s 1 -d -1 -p auv-SYNC -e 64 -c 2 -a 0 -i 0 -k MAC
h -t 7.048083731 -s 1 -d -1 -p auv-SYNC -e 64 -c 2 -a 0 -i 0 -k MAC -R 1100.000000
v -t 7.048083731 -e sim_annotation 7.048083731 7 node 1 sendout packet (auv-SYNC) 0
+ -t 9.705843147 -s 2 -d -1 -p auv-SYNC -e 64 -c 2 -a 0 -i 0 -k MAC 
- -t 9.705843147 -s 2 -d -1 -p auv-SYNC -e 64 -c 2 -a 0 -i 0 -k MAC
h -t 9.705843147 -s 2 -d -1 -p auv-SYNC -e 64 -c 2 -a 0 -i 0 -k MAC -R 1100.000000
v -t 9.705843147 -e sim_annotation 9.705843147 8 node 2 sendout packet (auv-SYNC) 0
+ -t 11.270442631 -s 7 -d -1 -p auv-SYNC -e 64 -c 2 -a 0 -i 0 -k MAC 
- -t 11.270442631 -s 7 -d -1 -p auv-SYNC -e 64 -c 2 -a 0 -i 0 -k MAC
h -t 11.270442631 -s 7 -d -1 -p auv-SYNC -e 64 -c 2 -a 0 -i 0 -k MAC -R 1100.000000
v -t 11.270442631 -e sim_annotation 11.270442631 9 node 7 sendout packet (auv-SYNC) 0
+ -t 11.480533887 -s 4 -d -1 -p auv-SYNC -e 64 -c 2 -a 0 -i 0 -k MAC 
- -t 11.480533887 -s 4 -d -1 -p auv-SYNC -e 64 -c 2 -a 0 -i 0 -k MAC
h -t 11.480533887 -s 4 -d -1 -p auv-SYNC -e 64 -c 2 -a 0 -i 0 -k MAC -R 1100.000000
v -t 11.480533887 -e sim_annotation 11.480533887 10 node 4 sendout packet (auv-SYNC) 0
+ -t 12.212340491 -s 5 -d -1 -p auv-SYNC -e 64 -c 2 -a 0 -i 0 -k MAC 
- -t 12.212340491 -s 5 -d -1 -p auv-SYNC -e 64 -c 2 -a 0 -i 0 -k MAC
h -t 12.212340491 -s 5 -d -1 -p auv-SYNC -e 64 -c 2 -a 0 -i 0 -k MAC -R 1100.000000
v -t 12.212340491 -e sim_annotation 12.212340491 11 node 5 sendout packet (auv-SYNC) 0
+ -t 12.857230760 -s 0 -d -1 -p auv-SYNC -e 64 -c 2 -a 0 -i 0 -k MAC 
- -t 12.857230760 -s 0 -d -1 -p auv-SYNC -e 64 -c 2 -a 0 -i 0 -k MAC
h -t 12.857230760 -s 0 -d -1 -p auv-SYNC -e 64 -c 2 -a 0 -i 0 -k MAC -R 1100.000000
v -t 12.857230760 -e sim_annotation 12.857230760 12 node 0 sendout packet (auv-SYNC) 0
+ -t 13.406486699 -s 3 -d -1 -p auv-SYNC -e 64 -c 2 -a 0 -i 0 -k MAC 
- -t 13.406486699 -s 3 -d -1 -p auv-SYNC -e 64 -c 2 -a 0 -i 0 -k MAC
h -t 13.406486699 -s 3 -d -1 -p auv-SYNC -e 64 -c 2 -a 0 -i 0 -k MAC -R 1100.000000
v -t 13.406486699 -e sim_annotation 13.406486699 13 node 3 sendout packet (auv-SYNC) 0
+ -t 15.841741586 -s 6 -d -1 -p auv-SYNC -e 64 -c 2 -a 0 -i 0 -k MAC 
- -t 15.841741586 -s 6 -d -1 -p auv-SYNC -e 64 -c 2 -a 0 -i 0 -k MAC
h -t 15.841741586 -s 6 -d -1 -p auv-SYNC -e 64 -c 2 -a 0 -i 0 -k MAC -R 1100.000000
v -t 15.841741586 -e sim_annotation 15.841741586 14 node 6 sendout packet (auv-SYNC) 0
+ -t 17.048083731 -s 1 -d -1 -p auv-SYNC -e 64 -c 2 -a 0 -i 0 -k MAC 
- -t 17.048083731 -s 1 -d -1 -p auv-SYNC -e 64 -c 2 -a 0 -i 0 -k MAC
h -t 17.048083731 -s 1 -d -1 -p auv-SYNC -e 64 -c 2 -a 0 -i 0 -k MAC -R 1100.000000
v -t 17.048083731 -e sim_annotation 17.048083731 15 node 1 sendout packet (auv-SYNC) 0
+ -t 19.705843147 -s 2 -d 3 -p vectorbasedforward -e 1696 -c 2 -a 0 -i 0 -k MAC 
- -t 19.705843147 -s 2 -d 3 -p vectorbasedforward -e 1696 -c 2 -a 0 -i 0 -k MAC
h -t 19.705843147 -s 2 -d 3 -p vectorbasedforward -e 1696 -c 2 -a 0 -i 0 -k MAC -R 1100.000000
v -t 19.705843147 -e sim_annotation 19.705843147 16 node 2 sendout packet (vectorbasedforward) 0
r -t 19.927664896 -s 3 -d 3 -p vectorbasedforward -e 1696 -c 2 -a 0 -i 0 -k MAC -R 1100.000000
v -t 19.927664896 -e sim_annotation 19.927664896 17 node 3 receive vectorbasedforward 0 from 3
+ -t 22.405176609 -s 0 -d -1 -p auv-SYNC -e 64 -c 2 -a 0 -i 0 -k MAC 
- -t 22.405176609 -s 0 -d -1 -p auv-SYNC -e 64 -c 2 -a 0 -i 0 -k MAC
h -t 22.405176609 -s 0 -d -1 -p auv-SYNC -e 64 -c 2 -a 0 -i 0 -k MAC -R 1100.000000
v -t 22.405176609 -e sim_annotation 22.405176609 18 node 0 sendout packet (auv-SYNC) 0
+ -t 22.939701195 -s 3 -d -1 -p auv-SYNC -e 64 -c 2 -a 0 -i 0 -k MAC 
- -t 22.939701195 -s 3 -d -1 -p auv-SYNC -e 64 -c 2 -a 0 -i 0 -k MAC
h -t 22.939701195 -s 3 -d -1 -p auv-SYNC -e 64 -c 2 -a 0 -i 0 -k MAC -R 1100.000000
v -t 22.939701195 -e sim_annotation 22.939701195 19 node 3 sendout packet (auv-SYNC) 0
+ -t 23.204100900 -s 6 -d -1 -p auv-SYNC -e 64 -c 2 -a 0 -i 0 -k MAC 
- -t 23.204100900 -s 6 -d -1 -p auv-SYNC -e 64 -c 2 -a 0 -i 0 -k MAC
h -t 23.204100900 -s 6 -d -1 -p auv-SYNC -e 64 -c 2 -a 0 -i 0 -k MAC -R 1100.000000
v -t 23.204100900 -e sim_annotation 23.204100900 20 node 6 sendout packet (auv-SYNC) 0
+ -t 23.515649326 -s 1 -d -1 -p auv-SYNC -e 64 -c 2 -a 0 -i 0 -k MAC 
- -t 23.515649326 -s 1 -d -1 -p auv-SYNC -e 64 -c 2 -a 0 -i 0 -k MAC
h -t 23.515649326 -s 1 -d -1 -p auv-SYNC -e 64 -c 2 -a 0 -i 0 -k MAC -R 1100.000000
v -t 23.515649326 -e sim_annotation 23.515649326 21 node 1 sendout packet (auv-SYNC) 0
+ -t 26.474960962 -s 5 -d -1 -p auv-SYNC -e 64 -c 2 -a 0 -i 0 -k MAC 
- -t 26.474960962 -s 5 -d -1 -p auv-SYNC -e 64 -c 2 -a 0 -i 0 -k MAC
h -t 26.474960962 -s 5 -d -1 -p auv-SYNC -e 64 -c 2 -a 0 -i 0 -k MAC -R 1100.000000
v -t 26.474960962 -e sim_annotation 26.474960962 22 node 5 sendout packet (auv-SYNC) 0
+ -t 26.581342237 -s 6 -d -1 -p auv-SYNC -e 64 -c 2 -a 0 -i 0 -k MAC 
- -t 26.581342237 -s 6 -d -1 -p auv-SYNC -e 64 -c 2 -a 0 -i 0 -k MAC
h -t 26.581342237 -s 6 -d -1 -p auv-SYNC -e 64 -c 2 -a 0 -i 0 -k MAC -R 1100.000000
v -t 26.581342237 -e sim_annotation 26.581342237 23 node 6 sendout packet (auv-SYNC) 0
+ -t 30.235845142 -s 2 -d -1 -p auv-SYNC -e 64 -c 2 -a 0 -i 0 -k MAC 
- -t 30.235845142 -s 2 -d -1 -p auv-SYNC -e 64 -c 2 -a 0 -i 0 -k MAC
h -t 30.235845142 -s 2 -d -1 -p auv-SYNC -e 64 -c 2 -a 0 -i 0 -k MAC -R 1100.000000
v -t 30.235845142 -e sim_annotation 30.235845142 24 node 2 sendout packet (auv-SYNC) 0
+ -t 32.209033191 -s 6 -d -1 -p auv-SYNC -e 64 -c 2 -a 0 -i 0 -k MAC 
- -t 32.209033191 -s 6 -d -1 -p auv-SYNC -e 64 -c 2 -a 0 -i 0 -k MAC
h -t 32.209033191 -s 6 -d -1 -p auv-SYNC -e 64 -c 2 -a 0 -i 0 -k MAC -R 1100.000000
v -t 32.209033191 -e sim_annotation 32.209033191 25 node 6 sendout packet (auv-SYNC) 0
+ -t 36.799241227 -s 4 -d -1 -p auv-SYNC -e 64 -c 2 -a 0 -i 0 -k MAC 
- -t 36.799241227 -s 4 -d -1 -p auv-SYNC -e 64 -c 2 -a 0 -i 0 -k MAC
h -t 36.799241227 -s 4 -d -1 -p auv-SYNC -e 64 -c 2 -a 0 -i 0 -k MAC -R 1100.000000
v -t 36.799241227 -e sim_annotation 36.799241227 26 node 4 sendout packet (auv-SYNC) 0
+ -t 60.001000000 -s 7 -d -1 -p auv-SYNC -e 64 -c 2 -a 0 -i 0 -k MAC 
- -t 60.001000000 -s 7 -d -1 -p auv-SYNC -e 64 -c 2 -a 0 -i 0 -k MAC
h -t 60.001000000 -s 7 -d -1 -p auv-SYNC -e 64 -c 2 -a 0 -i 0 -k MAC -R 1100.000000
v -t 60.001000000 -e sim_annotation 60.001000000 27 node 7 sendout packet (auv-SYNC) 0
+ -t 72.405176609 -s 0 -d -1 -p auv-SYNC -e 64 -c 2 -a 0 -i 0 -k MAC 
- -t 72.405176609 -s 0 -d -1 -p auv-SYNC -e 64 -c 2 -a 0 -i 0 -k MAC
h -t 72.405176609 -s 0 -d -1 -p auv-SYNC -e 64 -c 2 -a 0 -i 0 -k MAC -R 1100.000000
v -t 72.405176609 -e sim_annotation 72.405176609 28 node 0 sendout packet (auv-SYNC) 0
+ -t 72.939701195 -s 3 -d -1 -p auv-SYNC -e 64 -c 2 -a 0 -i 0 -k MAC 
- -t 72.939701195 -s 3 -d -1 -p auv-SYNC -e 64 -c 2 -a 0 -i 0 -k MAC
h -t 72.939701195 -s 3 -d -1 -p auv-SYNC -e 64 -c 2 -a 0 -i 0 -k MAC -R 1100.000000
v -t 72.939701195 -e sim_annotation 72.939701195 29 node 3 sendout packet (auv-SYNC) 0
+ -t 73.515649326 -s 1 -d -1 -p auv-SYNC -e 64 -c 2 -a 0 -i 0 -k MAC 
- -t 73.515649326 -s 1 -d -1 -p auv-SYNC -e 64 -c 2 -a 0 -i 0 -k MAC
h -t 73.515649326 -s 1 -d -1 -p auv-SYNC -e 64 -c 2 -a 0 -i 0 -k MAC -R 1100.000000
v -t 73.515649326 -e sim_annotation 73.515649326 30 node 1 sendout packet (auv-SYNC) 0
+ -t 76.474960962 -s 5 -d -1 -p auv-SYNC -e 64 -c 2 -a 0 -i 0 -k MAC 
- -t 76.474960962 -s 5 -d -1 -p auv-SYNC -e 64 -c 2 -a 0 -i 0 -k MAC
h -t 76.474960962 -s 5 -d -1 -p auv-SYNC -e 64 -c 2 -a 0 -i 0 -k MAC -R 1100.000000
v -t 76.474960962 -e sim_annotation 76.474960962 31 node 5 sendout packet (auv-SYNC) 0
+ -t 80.235845142 -s 2 -d 3 -p vectorbasedforward -e 1696 -c 2 -a 0 -i 1 -k MAC 
- -t 80.235845142 -s 2 -d 3 -p vectorbasedforward -e 1696 -c 2 -a 0 -i 1 -k MAC
h -t 80.235845142 -s 2 -d 3 -p vectorbasedforward -e 1696 -c 2 -a 0 -i 1 -k MAC -R 1100.000000
v -t 80.235845142 -e sim_annotation 80.235845142 32 node 2 sendout packet (vectorbasedforward) 1
r -t 80.457666892 -s 3 -d 3 -p vectorbasedforward -e 1696 -c 2 -a 0 -i 1 -k MAC -R 1100.000000
v -t 80.457666892 -e sim_annotation 80.457666892 33 node 3 receive vectorbasedforward 1 from 3
+ -t 82.209033191 -s 6 -d -1 -p auv-SYNC -e 64 -c 2 -a 0 -i 0 -k MAC 
- -t 82.209033191 -s 6 -d -1 -p auv-SYNC -e 64 -c 2 -a 0 -i 0 -k MAC
h -t 82.209033191 -s 6 -d -1 -p auv-SYNC -e 64 -c 2 -a 0 -i 0 -k MAC -R 1100.000000
v -t 82.209033191 -e sim_annotation 82.209033191 34 node 6 sendout packet (auv-SYNC) 0
+ -t 86.799241227 -s 4 -d -1 -p auv-SYNC -e 64 -c 2 -a 0 -i 0 -k MAC 
- -t 86.799241227 -s 4 -d -1 -p auv-SYNC -e 64 -c 2 -a 0 -i 0 -k MAC
h -t 86.799241227 -s 4 -d -1 -p auv-SYNC -e 64 -c 2 -a 0 -i 0 -k MAC -R 1100.000000
v -t 86.799241227 -e sim_annotation 86.799241227 35 node 4 sendout packet (auv-SYNC) 0
+ -t 110.001000000 -s 7 -d -1 -p auv-SYNC -e 64 -c 2 -a 0 -i 0 -k MAC 
- -t 110.001000000 -s 7 -d -1 -p auv-SYNC -e 64 -c 2 -a 0 -i 0 -k MAC
h -t 110.001000000 -s 7 -d -1 -p auv-SYNC -e 64 -c 2 -a 0 -i 0 -k MAC -R 1100.000000
v -t 110.001000000 -e sim_annotation 110.001000000 36 node 7 sendout packet (auv-SYNC) 0
+ -t 122.405176609 -s 0 -d -1 -p auv-SYNC -e 64 -c 2 -a 0 -i 0 -k MAC 
- -t 122.405176609 -s 0 -d -1 -p auv-SYNC -e 64 -c 2 -a 0 -i 0 -k MAC
h -t 122.405176609 -s 0 -d -1 -p auv-SYNC -e 64 -c 2 -a 0 -i 0 -k MAC -R 1100.000000
v -t 122.405176609 -e sim_annotation 122.405176609 37 node 0 sendout packet (auv-SYNC) 0
+ -t 122.939701195 -s 3 -d -1 -p auv-SYNC -e 64 -c 2 -a 0 -i 0 -k MAC 
- -t 122.939701195 -s 3 -d -1 -p auv-SYNC -e 64 -c 2 -a 0 -i 0 -k MAC
h -t 122.939701195 -s 3 -d -1 -p auv-SYNC -e 64 -c 2 -a 0 -i 0 -k MAC -R 1100.000000
v -t 122.939701195 -e sim_annotation 122.939701195 38 node 3 sendout packet (auv-SYNC) 0
+ -t 123.515649326 -s 1 -d -1 -p auv-SYNC -e 64 -c 2 -a 0 -i 0 -k MAC 
- -t 123.515649326 -s 1 -d -1 -p auv-SYNC -e 64 -c 2 -a 0 -i 0 -k MAC
h -t 123.515649326 -s 1 -d -1 -p auv-SYNC -e 64 -c 2 -a 0 -i 0 -k MAC -R 1100.000000
v -t 123.515649326 -e sim_annotation 123.515649326 39 node 1 sendout packet (auv-SYNC) 0
+ -t 126.474960962 -s 5 -d -1 -p auv-SYNC -e 64 -c 2 -a 0 -i 0 -k MAC 
- -t 126.474960962 -s 5 -d -1 -p auv-SYNC -e 64 -c 2 -a 0 -i 0 -k MAC
h -t 126.474960962 -s 5 -d -1 -p auv-SYNC -e 64 -c 2 -a 0 -i 0 -k MAC -R 1100.000000
v -t 126.474960962 -e sim_annotation 126.474960962 40 node 5 sendout packet (auv-SYNC) 0
+ -t 130.235845142 -s 2 -d 3 -p vectorbasedforward -e 1696 -c 2 -a 0 -i 2 -k MAC 
- -t 130.235845142 -s 2 -d 3 -p vectorbasedforward -e 1696 -c 2 -a 0 -i 2 -k MAC
h -t 130.235845142 -s 2 -d 3 -p vectorbasedforward -e 1696 -c 2 -a 0 -i 2 -k MAC -R 1100.000000
v -t 130.235845142 -e sim_annotation 130.235845142 41 node 2 sendout packet (vectorbasedforward) 2
r -t 130.457666892 -s 3 -d 3 -p vectorbasedforward -e 1696 -c 2 -a 0 -i 2 -k MAC -R 1100.000000
v -t 130.457666892 -e sim_annotation 130.457666892 42 node 3 receive vectorbasedforward 2 from 3
+ -t 132.209033191 -s 6 -d -1 -p auv-SYNC -e 64 -c 2 -a 0 -i 0 -k MAC 
- -t 132.209033191 -s 6 -d -1 -p auv-SYNC -e 64 -c 2 -a 0 -i 0 -k MAC
h -t 132.209033191 -s 6 -d -1 -p auv-SYNC -e 64 -c 2 -a 0 -i 0 -k MAC -R 1100.000000
v -t 132.209033191 -e sim_annotation 132.209033191 43 node 6 sendout packet (auv-SYNC) 0
+ -t 136.799241227 -s 4 -d -1 -p auv-SYNC -e 64 -c 2 -a 0 -i 0 -k MAC 
- -t 136.799241227 -s 4 -d -1 -p auv-SYNC -e 64 -c 2 -a 0 -i 0 -k MAC
h -t 136.799241227 -s 4 -d -1 -p auv-SYNC -e 64 -c 2 -a 0 -i 0 -k MAC -R 1100.000000
v -t 136.799241227 -e sim_annotation 136.799241227 44 node 4 sendout packet (auv-SYNC) 0
+ -t 160.001000000 -s 7 -d -1 -p auv-SYNC -e 64 -c 2 -a 0 -i 0 -k MAC 
- -t 160.001000000 -s 7 -d -1 -p auv-SYNC -e 64 -c 2 -a 0 -i 0 -k MAC
h -t 160.001000000 -s 7 -d -1 -p auv-SYNC -e 64 -c 2 -a 0 -i 0 -k MAC -R 1100.000000
v -t 160.001000000 -e sim_annotation 160.001000000 45 node 7 sendout packet (auv-SYNC) 0
+ -t 172.405176609 -s 0 -d -1 -p auv-SYNC -e 64 -c 2 -a 0 -i 0 -k MAC 
- -t 172.405176609 -s 0 -d -1 -p auv-SYNC -e 64 -c 2 -a 0 -i 0 -k MAC
h -t 172.405176609 -s 0 -d -1 -p auv-SYNC -e 64 -c 2 -a 0 -i 0 -k MAC -R 1100.000000
v -t 172.405176609 -e sim_annotation 172.405176609 46 node 0 sendout packet (auv-SYNC) 0
+ -t 172.939701195 -s 3 -d -1 -p auv-SYNC -e 64 -c 2 -a 0 -i 0 -k MAC 
- -t 172.939701195 -s 3 -d -1 -p auv-SYNC -e 64 -c 2 -a 0 -i 0 -k MAC
h -t 172.939701195 -s 3 -d -1 -p auv-SYNC -e 64 -c 2 -a 0 -i 0 -k MAC -R 1100.000000
v -t 172.939701195 -e sim_annotation 172.939701195 47 node 3 sendout packet (auv-SYNC) 0
+ -t 173.515649326 -s 1 -d -1 -p auv-SYNC -e 64 -c 2 -a 0 -i 0 -k MAC 
- -t 173.515649326 -s 1 -d -1 -p auv-SYNC -e 64 -c 2 -a 0 -i 0 -k MAC
h -t 173.515649326 -s 1 -d -1 -p auv-SYNC -e 64 -c 2 -a 0 -i 0 -k MAC -R 1100.000000
v -t 173.515649326 -e sim_annotation 173.515649326 48 node 1 sendout packet (auv-SYNC) 0
+ -t 176.474960962 -s 5 -d -1 -p auv-SYNC -e 64 -c 2 -a 0 -i 0 -k MAC 
- -t 176.474960962 -s 5 -d -1 -p auv-SYNC -e 64 -c 2 -a 0 -i 0 -k MAC
h -t 176.474960962 -s 5 -d -1 -p auv-SYNC -e 64 -c 2 -a 0 -i 0 -k MAC -R 1100.000000
v -t 176.474960962 -e sim_annotation 176.474960962 49 node 5 sendout packet (auv-SYNC) 0
+ -t 180.235845142 -s 2 -d 3 -p vectorbasedforward -e 1696 -c 2 -a 0 -i 3 -k MAC 
- -t 180.235845142 -s 2 -d 3 -p vectorbasedforward -e 1696 -c 2 -a 0 -i 3 -k MAC
h -t 180.235845142 -s 2 -d 3 -p vectorbasedforward -e 1696 -c 2 -a 0 -i 3 -k MAC -R 1100.000000
v -t 180.235845142 -e sim_annotation 180.235845142 50 node 2 sendout packet (vectorbasedforward) 3
r -t 180.457666892 -s 3 -d 3 -p vectorbasedforward -e 1696 -c 2 -a 0 -i 3 -k MAC -R 1100.000000
v -t 180.457666892 -e sim_annotation 180.457666892 51 node 3 receive vectorbasedforward 3 from 3
+ -t 182.209033191 -s 6 -d -1 -p auv-SYNC -e 64 -c 2 -a 0 -i 0 -k MAC 
- -t 182.209033191 -s 6 -d -1 -p auv-SYNC -e 64 -c 2 -a 0 -i 0 -k MAC
h -t 182.209033191 -s 6 -d -1 -p auv-SYNC -e 64 -c 2 -a 0 -i 0 -k MAC -R 1100.000000
v -t 182.209033191 -e sim_annotation 182.209033191 52 node 6 sendout packet (auv-SYNC) 0
+ -t 186.799241227 -s 4 -d -1 -p auv-SYNC -e 64 -c 2 -a 0 -i 0 -k MAC 
- -t 186.799241227 -s 4 -d -1 -p auv-SYNC -e 64 -c 2 -a 0 -i 0 -k MAC
h -t 186.799241227 -s 4 -d -1 -p auv-SYNC -e 64 -c 2 -a 0 -i 0 -k MAC -R 1100.000000
v -t 186.799241227 -e sim_annotation 186.799241227 53 node 4 sendout packet (auv-SYNC) 0
+ -t 210.001000000 -s 7 -d -1 -p auv-SYNC -e 64 -c 2 -a 0 -i 0 -k MAC 
- -t 210.001000000 -s 7 -d -1 -p auv-SYNC -e 64 -c 2 -a 0 -i 0 -k MAC
h -t 210.001000000 -s 7 -d -1 -p auv-SYNC -e 64 -c 2 -a 0 -i 0 -k MAC -R 1100.000000
v -t 210.001000000 -e sim_annotation 210.001000000 54 node 7 sendout packet (auv-SYNC) 0
+ -t 222.405176609 -s 0 -d -1 -p auv-SYNC -e 64 -c 2 -a 0 -i 0 -k MAC 
- -t 222.405176609 -s 0 -d -1 -p auv-SYNC -e 64 -c 2 -a 0 -i 0 -k MAC
h -t 222.405176609 -s 0 -d -1 -p auv-SYNC -e 64 -c 2 -a 0 -i 0 -k MAC -R 1100.000000
v -t 222.405176609 -e sim_annotation 222.405176609 55 node 0 sendout packet (auv-SYNC) 0
+ -t 222.939701195 -s 3 -d -1 -p auv-SYNC -e 64 -c 2 -a 0 -i 0 -k MAC 
- -t 222.939701195 -s 3 -d -1 -p auv-SYNC -e 64 -c 2 -a 0 -i 0 -k MAC
h -t 222.939701195 -s 3 -d -1 -p auv-SYNC -e 64 -c 2 -a 0 -i 0 -k MAC -R 1100.000000
v -t 222.939701195 -e sim_annotation 222.939701195 56 node 3 sendout packet (auv-SYNC) 0
+ -t 223.515649326 -s 1 -d -1 -p auv-SYNC -e 64 -c 2 -a 0 -i 0 -k MAC 
- -t 223.515649326 -s 1 -d -1 -p auv-SYNC -e 64 -c 2 -a 0 -i 0 -k MAC
h -t 223.515649326 -s 1 -d -1 -p auv-SYNC -e 64 -c 2 -a 0 -i 0 -k MAC -R 1100.000000
v -t 223.515649326 -e sim_annotation 223.515649326 57 node 1 sendout packet (auv-SYNC) 0
+ -t 226.474960962 -s 5 -d -1 -p auv-SYNC -e 64 -c 2 -a 0 -i 0 -k MAC 
- -t 226.474960962 -s 5 -d -1 -p auv-SYNC -e 64 -c 2 -a 0 -i 0 -k MAC
h -t 226.474960962 -s 5 -d -1 -p auv-SYNC -e 64 -c 2 -a 0 -i 0 -k MAC -R 1100.000000
v -t 226.474960962 -e sim_annotation 226.474960962 58 node 5 sendout packet (auv-SYNC) 0
+ -t 230.235845142 -s 2 -d 3 -p vectorbasedforward -e 1696 -c 2 -a 0 -i 4 -k MAC 
- -t 230.235845142 -s 2 -d 3 -p vectorbasedforward -e 1696 -c 2 -a 0 -i 4 -k MAC
h -t 230.235845142 -s 2 -d 3 -p vectorbasedforward -e 1696 -c 2 -a 0 -i 4 -k MAC -R 1100.000000
v -t 230.235845142 -e sim_annotation 230.235845142 59 node 2 sendout packet (vectorbasedforward) 4
r -t 230.457666892 -s 3 -d 3 -p vectorbasedforward -e 1696 -c 2 -a 0 -i 4 -k MAC -R 1100.000000
v -t 230.457666892 -e sim_annotation 230.457666892 60 node 3 receive vectorbasedforward 4 from 3
+ -t 232.209033191 -s 6 -d -1 -p auv-SYNC -e 64 -c 2 -a 0 -i 0 -k MAC 
- -t 232.209033191 -s 6 -d -1 -p auv-SYNC -e 64 -c 2 -a 0 -i 0 -k MAC
h -t 232.209033191 -s 6 -d -1 -p auv-SYNC -e 64 -c 2 -a 0 -i 0 -k MAC -R 1100.000000
v -t 232.209033191 -e sim_annotation 232.209033191 61 node 6 sendout packet (auv-SYNC) 0
+ -t 236.799241227 -s 4 -d -1 -p auv-SYNC -e 64 -c 2 -a 0 -i 0 -k MAC 
- -t 236.799241227 -s 4 -d -1 -p auv-SYNC -e 64 -c 2 -a 0 -i 0 -k MAC
h -t 236.799241227 -s 4 -d -1 -p auv-SYNC -e 64 -c 2 -a 0 -i 0 -k MAC -R 1100.000000
v -t 236.799241227 -e sim_annotation 236.799241227 62 node 4 sendout packet (auv-SYNC) 0
+ -t 260.001000000 -s 7 -d -1 -p auv-SYNC -e 64 -c 2 -a 0 -i 0 -k MAC 
- -t 260.001000000 -s 7 -d -1 -p auv-SYNC -e 64 -c 2 -a 0 -i 0 -k MAC
h -t 260.001000000 -s 7 -d -1 -p auv-SYNC -e 64 -c 2 -a 0 -i 0 -k MAC -R 1100.000000
v -t 260.001000000 -e sim_annotation 260.001000000 63 node 7 sendout packet (auv-SYNC) 0
+ -t 272.405176609 -s 0 -d -1 -p auv-SYNC -e 64 -c 2 -a 0 -i 0 -k MAC 
- -t 272.405176609 -s 0 -d -1 -p auv-SYNC -e 64 -c 2 -a 0 -i 0 -k MAC
h -t 272.405176609 -s 0 -d -1 -p auv-SYNC -e 64 -c 2 -a 0 -i 0 -k MAC -R 1100.000000
v -t 272.405176609 -e sim_annotation 272.405176609 64 node 0 sendout packet (auv-SYNC) 0
+ -t 272.939701195 -s 3 -d -1 -p auv-SYNC -e 64 -c 2 -a 0 -i 0 -k MAC 
- -t 272.939701195 -s 3 -d -1 -p auv-SYNC -e 64 -c 2 -a 0 -i 0 -k MAC
h -t 272.939701195 -s 3 -d -1 -p auv-SYNC -e 64 -c 2 -a 0 -i 0 -k MAC -R 1100.000000
v -t 272.939701195 -e sim_annotation 272.939701195 65 node 3 sendout packet (auv-SYNC) 0
+ -t 273.515649326 -s 1 -d -1 -p auv-SYNC -e 64 -c 2 -a 0 -i 0 -k MAC 
- -t 273.515649326 -s 1 -d -1 -p auv-SYNC -e 64 -c 2 -a 0 -i 0 -k MAC
h -t 273.515649326 -s 1 -d -1 -p auv-SYNC -e 64 -c 2 -a 0 -i 0 -k MAC -R 1100.000000
v -t 273.515649326 -e sim_annotation 273.515649326 66 node 1 sendout packet (auv-SYNC) 0
+ -t 276.474960962 -s 5 -d -1 -p auv-SYNC -e 64 -c 2 -a 0 -i 0 -k MAC 
- -t 276.474960962 -s 5 -d -1 -p auv-SYNC -e 64 -c 2 -a 0 -i 0 -k MAC
h -t 276.474960962 -s 5 -d -1 -p auv-SYNC -e 64 -c 2 -a 0 -i 0 -k MAC -R 1100.000000
v -t 276.474960962 -e sim_annotation 276.474960962 67 node 5 sendout packet (auv-SYNC) 0
+ -t 280.235845142 -s 2 -d 3 -p vectorbasedforward -e 1696 -c 2 -a 0 -i 5 -k MAC 
- -t 280.235845142 -s 2 -d 3 -p vectorbasedforward -e 1696 -c 2 -a 0 -i 5 -k MAC
h -t 280.235845142 -s 2 -d 3 -p vectorbasedforward -e 1696 -c 2 -a 0 -i 5 -k MAC -R 1100.000000
v -t 280.235845142 -e sim_annotation 280.235845142 68 node 2 sendout packet (vectorbasedforward) 5
r -t 280.457666892 -s 3 -d 3 -p vectorbasedforward -e 1696 -c 2 -a 0 -i 5 -k MAC -R 1100.000000
v -t 280.457666892 -e sim_annotation 280.457666892 69 node 3 receive vectorbasedforward 5 from 3
+ -t 282.209033191 -s 6 -d -1 -p auv-SYNC -e 64 -c 2 -a 0 -i 0 -k MAC 
- -t 282.209033191 -s 6 -d -1 -p auv-SYNC -e 64 -c 2 -a 0 -i 0 -k MAC
h -t 282.209033191 -s 6 -d -1 -p auv-SYNC -e 64 -c 2 -a 0 -i 0 -k MAC -R 1100.000000
v -t 282.209033191 -e sim_annotation 282.209033191 70 node 6 sendout packet (auv-SYNC) 0
+ -t 286.799241227 -s 4 -d -1 -p auv-SYNC -e 64 -c 2 -a 0 -i 0 -k MAC 
- -t 286.799241227 -s 4 -d -1 -p auv-SYNC -e 64 -c 2 -a 0 -i 0 -k MAC
h -t 286.799241227 -s 4 -d -1 -p auv-SYNC -e 64 -c 2 -a 0 -i 0 -k MAC -R 1100.000000
v -t 286.799241227 -e sim_annotation 286.799241227 71 node 4 sendout packet (auv-SYNC) 0
+ -t 310.001000000 -s 7 -d -1 -p auv-SYNC -e 64 -c 2 -a 0 -i 0 -k MAC 
- -t 310.001000000 -s 7 -d -1 -p auv-SYNC -e 64 -c 2 -a 0 -i 0 -k MAC
h -t 310.001000000 -s 7 -d -1 -p auv-SYNC -e 64 -c 2 -a 0 -i 0 -k MAC -R 1100.000000
v -t 310.001000000 -e sim_annotation 310.001000000 72 node 7 sendout packet (auv-SYNC) 0
+ -t 322.405176609 -s 0 -d -1 -p auv-SYNC -e 64 -c 2 -a 0 -i 0 -k MAC 
- -t 322.405176609 -s 0 -d -1 -p auv-SYNC -e 64 -c 2 -a 0 -i 0 -k MAC
h -t 322.405176609 -s 0 -d -1 -p auv-SYNC -e 64 -c 2 -a 0 -i 0 -k MAC -R 1100.000000
v -t 322.405176609 -e sim_annotation 322.405176609 73 node 0 sendout packet (auv-SYNC) 0
+ -t 322.939701195 -s 3 -d -1 -p auv-SYNC -e 64 -c 2 -a 0 -i 0 -k MAC 
- -t 322.939701195 -s 3 -d -1 -p auv-SYNC -e 64 -c 2 -a 0 -i 0 -k MAC
h -t 322.939701195 -s 3 -d -1 -p auv-SYNC -e 64 -c 2 -a 0 -i 0 -k MAC -R 1100.000000
v -t 322.939701195 -e sim_annotation 322.939701195 74 node 3 sendout packet (auv-SYNC) 0
+ -t 323.515649326 -s 1 -d -1 -p auv-SYNC -e 64 -c 2 -a 0 -i 0 -k MAC 
- -t 323.515649326 -s 1 -d -1 -p auv-SYNC -e 64 -c 2 -a 0 -i 0 -k MAC
h -t 323.515649326 -s 1 -d -1 -p auv-SYNC -e 64 -c 2 -a 0 -i 0 -k MAC -R 1100.000000
v -t 323.515649326 -e sim_annotation 323.515649326 75 node 1 sendout packet (auv-SYNC) 0
+ -t 326.474960962 -s 5 -d -1 -p auv-SYNC -e 64 -c 2 -a 0 -i 0 -k MAC 
- -t 326.474960962 -s 5 -d -1 -p auv-SYNC -e 64 -c 2 -a 0 -i 0 -k MAC
h -t 326.474960962 -s 5 -d -1 -p auv-SYNC -e 64 -c 2 -a 0 -i 0 -k MAC -R 1100.000000
v -t 326.474960962 -e sim_annotation 326.474960962 76 node 5 sendout packet (auv-SYNC) 0
+ -t 330.235845142 -s 2 -d 3 -p vectorbasedforward -e 1696 -c 2 -a 0 -i 6 -k MAC 
- -t 330.235845142 -s 2 -d 3 -p vectorbasedforward -e 1696 -c 2 -a 0 -i 6 -k MAC
h -t 330.235845142 -s 2 -d 3 -p vectorbasedforward -e 1696 -c 2 -a 0 -i 6 -k MAC -R 1100.000000
v -t 330.235845142 -e sim_annotation 330.235845142 77 node 2 sendout packet (vectorbasedforward) 6
r -t 330.457666892 -s 3 -d 3 -p vectorbasedforward -e 1696 -c 2 -a 0 -i 6 -k MAC -R 1100.000000
v -t 330.457666892 -e sim_annotation 330.457666892 78 node 3 receive vectorbasedforward 6 from 3
+ -t 332.209033191 -s 6 -d -1 -p auv-SYNC -e 64 -c 2 -a 0 -i 0 -k MAC 
- -t 332.209033191 -s 6 -d -1 -p auv-SYNC -e 64 -c 2 -a 0 -i 0 -k MAC
h -t 332.209033191 -s 6 -d -1 -p auv-SYNC -e 64 -c 2 -a 0 -i 0 -k MAC -R 1100.000000
v -t 332.209033191 -e sim_annotation 332.209033191 79 node 6 sendout packet (auv-SYNC) 0
+ -t 336.799241227 -s 4 -d -1 -p auv-SYNC -e 64 -c 2 -a 0 -i 0 -k MAC 
- -t 336.799241227 -s 4 -d -1 -p auv-SYNC -e 64 -c 2 -a 0 -i 0 -k MAC
h -t 336.799241227 -s 4 -d -1 -p auv-SYNC -e 64 -c 2 -a 0 -i 0 -k MAC -R 1100.000000
v -t 336.799241227 -e sim_annotation 336.799241227 80 node 4 sendout packet (auv-SYNC) 0
+ -t 360.001000000 -s 7 -d -1 -p auv-SYNC -e 64 -c 2 -a 0 -i 0 -k MAC 
- -t 360.001000000 -s 7 -d -1 -p auv-SYNC -e 64 -c 2 -a 0 -i 0 -k MAC
h -t 360.001000000 -s 7 -d -1 -p auv-SYNC -e 64 -c 2 -a 0 -i 0 -k MAC -R 1100.000000
v -t 360.001000000 -e sim_annotation 360.001000000 81 node 7 sendout packet (auv-SYNC) 0
+ -t 372.405176609 -s 0 -d -1 -p auv-SYNC -e 64 -c 2 -a 0 -i 0 -k MAC 
- -t 372.405176609 -s 0 -d -1 -p auv-SYNC -e 64 -c 2 -a 0 -i 0 -k MAC
h -t 372.405176609 -s 0 -d -1 -p auv-SYNC -e 64 -c 2 -a 0 -i 0 -k MAC -R 1100.000000
v -t 372.405176609 -e sim_annotation 372.405176609 82 node 0 sendout packet (auv-SYNC) 0
+ -t 372.939701195 -s 3 -d -1 -p auv-SYNC -e 64 -c 2 -a 0 -i 0 -k MAC 
- -t 372.939701195 -s 3 -d -1 -p auv-SYNC -e 64 -c 2 -a 0 -i 0 -k MAC
h -t 372.939701195 -s 3 -d -1 -p auv-SYNC -e 64 -c 2 -a 0 -i 0 -k MAC -R 1100.000000
v -t 372.939701195 -e sim_annotation 372.939701195 83 node 3 sendout packet (auv-SYNC) 0
+ -t 373.515649326 -s 1 -d -1 -p auv-SYNC -e 64 -c 2 -a 0 -i 0 -k MAC 
- -t 373.515649326 -s 1 -d -1 -p auv-SYNC -e 64 -c 2 -a 0 -i 0 -k MAC
h -t 373.515649326 -s 1 -d -1 -p auv-SYNC -e 64 -c 2 -a 0 -i 0 -k MAC -R 1100.000000
v -t 373.515649326 -e sim_annotation 373.515649326 84 node 1 sendout packet (auv-SYNC) 0
+ -t 376.474960962 -s 5 -d -1 -p auv-SYNC -e 64 -c 2 -a 0 -i 0 -k MAC 
- -t 376.474960962 -s 5 -d -1 -p auv-SYNC -e 64 -c 2 -a 0 -i 0 -k MAC
h -t 376.474960962 -s 5 -d -1 -p auv-SYNC -e 64 -c 2 -a 0 -i 0 -k MAC -R 1100.000000
v -t 376.474960962 -e sim_annotation 376.474960962 85 node 5 sendout packet (auv-SYNC) 0
+ -t 380.235845142 -s 2 -d 3 -p vectorbasedforward -e 1696 -c 2 -a 0 -i 7 -k MAC 
- -t 380.235845142 -s 2 -d 3 -p vectorbasedforward -e 1696 -c 2 -a 0 -i 7 -k MAC
h -t 380.235845142 -s 2 -d 3 -p vectorbasedforward -e 1696 -c 2 -a 0 -i 7 -k MAC -R 1100.000000
v -t 380.235845142 -e sim_annotation 380.235845142 86 node 2 sendout packet (vectorbasedforward) 7
r -t 380.457666892 -s 3 -d 3 -p vectorbasedforward -e 1696 -c 2 -a 0 -i 7 -k MAC -R 1100.000000
v -t 380.457666892 -e sim_annotation 380.457666892 87 node 3 receive vectorbasedforward 7 from 3
+ -t 382.209033191 -s 6 -d -1 -p auv-SYNC -e 64 -c 2 -a 0 -i 0 -k MAC 
- -t 382.209033191 -s 6 -d -1 -p auv-SYNC -e 64 -c 2 -a 0 -i 0 -k MAC
h -t 382.209033191 -s 6 -d -1 -p auv-SYNC -e 64 -c 2 -a 0 -i 0 -k MAC -R 1100.000000
v -t 382.209033191 -e sim_annotation 382.209033191 88 node 6 sendout packet (auv-SYNC) 0
+ -t 386.799241227 -s 4 -d -1 -p auv-SYNC -e 64 -c 2 -a 0 -i 0 -k MAC 
- -t 386.799241227 -s 4 -d -1 -p auv-SYNC -e 64 -c 2 -a 0 -i 0 -k MAC
h -t 386.799241227 -s 4 -d -1 -p auv-SYNC -e 64 -c 2 -a 0 -i 0 -k MAC -R 1100.000000
v -t 386.799241227 -e sim_annotation 386.799241227 89 node 4 sendout packet (auv-SYNC) 0
+ -t 410.001000000 -s 7 -d -1 -p auv-SYNC -e 64 -c 2 -a 0 -i 0 -k MAC 
- -t 410.001000000 -s 7 -d -1 -p auv-SYNC -e 64 -c 2 -a 0 -i 0 -k MAC
h -t 410.001000000 -s 7 -d -1 -p auv-SYNC -e 64 -c 2 -a 0 -i 0 -k MAC -R 1100.000000
v -t 410.001000000 -e sim_annotation 410.001000000 90 node 7 sendout packet (auv-SYNC) 0
+ -t 422.405176609 -s 0 -d -1 -p auv-SYNC -e 64 -c 2 -a 0 -i 0 -k MAC 
- -t 422.405176609 -s 0 -d -1 -p auv-SYNC -e 64 -c 2 -a 0 -i 0 -k MAC
h -t 422.405176609 -s 0 -d -1 -p auv-SYNC -e 64 -c 2 -a 0 -i 0 -k MAC -R 1100.000000
v -t 422.405176609 -e sim_annotation 422.405176609 91 node 0 sendout packet (auv-SYNC) 0
+ -t 422.939701195 -s 3 -d -1 -p auv-SYNC -e 64 -c 2 -a 0 -i 0 -k MAC 
- -t 422.939701195 -s 3 -d -1 -p auv-SYNC -e 64 -c 2 -a 0 -i 0 -k MAC
h -t 422.939701195 -s 3 -d -1 -p auv-SYNC -e 64 -c 2 -a 0 -i 0 -k MAC -R 1100.000000
v -t 422.939701195 -e sim_annotation 422.939701195 92 node 3 sendout packet (auv-SYNC) 0
+ -t 423.515649326 -s 1 -d -1 -p auv-SYNC -e 64 -c 2 -a 0 -i 0 -k MAC 
- -t 423.515649326 -s 1 -d -1 -p auv-SYNC -e 64 -c 2 -a 0 -i 0 -k MAC
h -t 423.515649326 -s 1 -d -1 -p auv-SYNC -e 64 -c 2 -a 0 -i 0 -k MAC -R 1100.000000
v -t 423.515649326 -e sim_annotation 423.515649326 93 node 1 sendout packet (auv-SYNC) 0
+ -t 426.474960962 -s 5 -d -1 -p auv-SYNC -e 64 -c 2 -a 0 -i 0 -k MAC 
- -t 426.474960962 -s 5 -d -1 -p auv-SYNC -e 64 -c 2 -a 0 -i 0 -k MAC
h -t 426.474960962 -s 5 -d -1 -p auv-SYNC -e 64 -c 2 -a 0 -i 0 -k MAC -R 1100.000000
v -t 426.474960962 -e sim_annotation 426.474960962 94 node 5 sendout packet (auv-SYNC) 0
+ -t 430.235845142 -s 2 -d 3 -p vectorbasedforward -e 1696 -c 2 -a 0 -i 8 -k MAC 
- -t 430.235845142 -s 2 -d 3 -p vectorbasedforward -e 1696 -c 2 -a 0 -i 8 -k MAC
h -t 430.235845142 -s 2 -d 3 -p vectorbasedforward -e 1696 -c 2 -a 0 -i 8 -k MAC -R 1100.000000
v -t 430.235845142 -e sim_annotation 430.235845142 95 node 2 sendout packet (vectorbasedforward) 8
r -t 430.457666892 -s 3 -d 3 -p vectorbasedforward -e 1696 -c 2 -a 0 -i 8 -k MAC -R 1100.000000
v -t 430.457666892 -e sim_annotation 430.457666892 96 node 3 receive vectorbasedforward 8 from 3
+ -t 432.209033191 -s 6 -d -1 -p auv-SYNC -e 64 -c 2 -a 0 -i 0 -k MAC 