n -t * -s 0  -x 70 -y 70 -Z 0 -z 10  -v circle -c green
n -t * -s 1  -x 30 -y 30 -Z 1 -z 10  -v circle -c green
n -t * -s 2  -x 90 -y 50 -Z 6 -z 10  -v circle -c green
n -t * -s 3  -x 30 -y 100 -Z 0 -z 10  -v circle -c green
n -t * -s 4  -x 110 -y 130 -Z 3 -z 10  -v circle -c green
n -t * -s 5  -x 120 -y 200 -Z 0 -z 10  -v circle -c green
n -t * -s 6  -x 130 -y 80 -Z 0 -z 10  -v circle -c green
n -t * -s 7  -x 80 -y 160 -Z 0 -z 10  -v circle -c green
V -t * -v 1.0a5 -a 0
W -t * -x 100 -y 100
A -t * -n 1 -p 0 -o 0xffffffff -c 31 -a 1
A -t * -h 1 -m 2147483647 -s 0
+ -t 1.073091673 -s 0 -d -1 -p auv-SYNC -e 64 -c 2 -a 0 -i 0 -k MAC 
- -t 1.073091673 -s 0 -d -1 -p auv-SYNC -e 64 -c 2 -a 0 -i 0 -k MAC
h -t 1.073091673 -s 0 -d -1 -p auv-SYNC -e 64 -c 2 -a 0 -i 0 -k MAC -R 1100.000000
v -t 1.073091673 -e sim_annotation 1.073091673 1 node 0 sendout packet (auv-SYNC) 0
r -t 1.098767449 -s 2 -d -1 -p auv-SYNC -e 64 -c 2 -a 0 -i 0 -k MAC -R 1100.000000
v -t 1.098767449 -e sim_annotation 1.098767449 2 node 2 receive packet(auv-SYNC) 0
r -t 1.112825006 -s 3 -d -1 -p auv-SYNC -e 64 -c 2 -a 0 -i 0 -k MAC -R 1100.000000
v -t 1.112825006 -e sim_annotation 1.112825006 3 node 3 receive packet(auv-SYNC) 0
r -t 1.117209927 -s 1 -d -1 -p auv-SYNC -e 64 -c 2 -a 0 -i 0 -k MAC -R 1100.000000
v -t 1.117209927 -e sim_annotation 1.117209927 4 node 1 receive packet(auv-SYNC) 0
r -t 1.120043423 -s 6 -d -1 -p auv-SYNC -e 64 -c 2 -a 0 -i 0 -k MAC -R 1100.000000
v -t 1.120043423 -e sim_annotation 1.120043423 5 node 6 receive packet(auv-SYNC) 0
r -t 1.127607274 -s 4 -d -1 -p auv-SYNC -e 64 -c 2 -a 0 -i 0 -k MAC -R 1100.000000
v -t 1.127607274 -e sim_annotation 1.127607274 6 node 4 receive packet(auv-SYNC) 0
r -t 1.139860907 -s 7 -d -1 -p auv-SYNC -e 64 -c 2 -a 0 -i 0 -k MAC -R 1100.000000
v -t 1.139860907 -e sim_annotation 1.139860907 7 node 7 receive packet(auv-SYNC) 0
r -t 1.172347595 -s 5 -d -1 -p auv-SYNC -e 64 -c 2 -a 0 -i 0 -k MAC -R 1100.000000
v -t 1.172347595 -e sim_annotation 1.172347595 8 node 5 receive packet(auv-SYNC) 0
+ -t 2.946894683 -s 1 -d -1 -p auv-SYNC -e 64 -c 2 -a 0 -i 0 -k MAC 
- -t 2.946894683 -s 1 -d -1 -p auv-SYNC -e 64 -c 2 -a 0 -i 0 -k MAC
h -t 2.946894683 -s 1 -d -1 -p auv-SYNC -e 64 -c 2 -a 0 -i 0 -k MAC -R 1100.000000
v -t 2.946894683 -e sim_annotation 2.946894683 9 node 1 sendout packet (auv-SYNC) 0
r -t 2.991012937 -s 0 -d -1 -p auv-SYNC -e 64 -c 2 -a 0 -i 0 -k MAC -R 1100.000000
v -t 2.991012937 -e sim_annotation 2.991012937 10 node 0 receive packet(auv-SYNC) 0
r -t 2.995589942 -s 2 -d -1 -p auv-SYNC -e 64 -c 2 -a 0 -i 0 -k MAC -R 1100.000000
v -t 2.995589942 -e sim_annotation 2.995589942 11 node 2 receive packet(auv-SYNC) 0
r -t 2.999966112 -s 3 -d -1 -p auv-SYNC -e 64 -c 2 -a 0 -i 0 -k MAC -R 1100.000000
v -t 2.999966112 -e sim_annotation 2.999966112 12 node 3 receive packet(auv-SYNC) 0
r -t 3.027833264 -s 6 -d -1 -p auv-SYNC -e 64 -c 2 -a 0 -i 0 -k MAC -R 1100.000000
v -t 3.027833264 -e sim_annotation 3.027833264 13 node 6 receive packet(auv-SYNC) 0
r -t 3.038680084 -s 4 -d -1 -p auv-SYNC -e 64 -c 2 -a 0 -i 0 -k MAC -R 1100.000000
v -t 3.038680084 -e sim_annotation 3.038680084 14 node 4 receive packet(auv-SYNC) 0
r -t 3.046152998 -s 7 -d -1 -p auv-SYNC -e 64 -c 2 -a 0 -i 0 -k MAC -R 1100.000000
v -t 3.046152998 -e sim_annotation 3.046152998 15 node 7 receive packet(auv-SYNC) 0
r -t 3.081532310 -s 5 -d -1 -p auv-SYNC -e 64 -c 2 -a 0 -i 0 -k MAC -R 1100.000000
v -t 3.081532310 -e sim_annotation 3.081532310 16 node 5 receive packet(auv-SYNC) 0
+ -t 4.398259232 -s 6 -d -1 -p auv-SYNC -e 64 -c 2 -a 0 -i 0 -k MAC 
- -t 4.398259232 -s 6 -d -1 -p auv-SYNC -e 64 -c 2 -a 0 -i 0 -k MAC
h -t 4.398259232 -s 6 -d -1 -p auv-SYNC -e 64 -c 2 -a 0 -i 0 -k MAC -R 1100.000000
v -t 4.398259232 -e sim_annotation 4.398259232 17 node 6 sendout packet (auv-SYNC) 0
r -t 4.438231708 -s 2 -d -1 -p auv-SYNC -e 64 -c 2 -a 0 -i 0 -k MAC -R 1100.000000
v -t 4.438231708 -e sim_annotation 4.438231708 18 node 2 receive packet(auv-SYNC) 0
r -t 4.440615996 -s 4 -d -1 -p auv-SYNC -e 64 -c 2 -a 0 -i 0 -k MAC -R 1100.000000
v -t 4.440615996 -e sim_annotation 4.440615996 19 node 4 receive packet(auv-SYNC) 0
r -t 4.445210982 -s 0 -d -1 -p auv-SYNC -e 64 -c 2 -a 0 -i 0 -k MAC -R 1100.000000
v -t 4.445210982 -e sim_annotation 4.445210982 20 node 0 receive packet(auv-SYNC) 0
r -t 4.467552440 -s 7 -d -1 -p auv-SYNC -e 64 -c 2 -a 0 -i 0 -k MAC -R 1100.000000
v -t 4.467552440 -e sim_annotation 4.467552440 21 node 7 receive packet(auv-SYNC) 0
r -t 4.472646159 -s 3 -d -1 -p auv-SYNC -e 64 -c 2 -a 0 -i 0 -k MAC -R 1100.000000
v -t 4.472646159 -e sim_annotation 4.472646159 22 node 3 receive packet(auv-SYNC) 0
r -t 4.479197813 -s 1 -d -1 -p auv-SYNC -e 64 -c 2 -a 0 -i 0 -k MAC -R 1100.000000
v -t 4.479197813 -e sim_annotation 4.479197813 23 node 1 receive packet(auv-SYNC) 0
r -t 4.484936529 -s 5 -d -1 -p auv-SYNC -e 64 -c 2 -a 0 -i 0 -k MAC -R 1100.000000
v -t 4.484936529 -e sim_annotation 4.484936529 24 node 5 receive packet(auv-SYNC) 0
+ -t 4.791065767 -s 3 -d -1 -p auv-SYNC -e 64 -c 2 -a 0 -i 0 -k MAC 
- -t 4.791065767 -s 3 -d -1 -p auv-SYNC -e 64 -c 2 -a 0 -i 0 -k MAC
h -t 4.791065767 -s 3 -d -1 -p auv-SYNC -e 64 -c 2 -a 0 -i 0 -k MAC -R 1100.000000
v -t 4.791065767 -e sim_annotation 4.791065767 25 node 3 sendout packet (auv-SYNC) 0
r -t 4.830799101 -s 0 -d -1 -p auv-SYNC -e 64 -c 2 -a 0 -i 0 -k MAC -R 1100.000000
v -t 4.830799101 -e sim_annotation 4.830799101 26 node 0 receive packet(auv-SYNC) 0
r -t 4.844137196 -s 1 -d -1 -p auv-SYNC -e 64 -c 2 -a 0 -i 0 -k MAC -R 1100.000000
v -t 4.844137196 -e sim_annotation 4.844137196 27 node 1 receive packet(auv-SYNC) 0
r -t 4.849534098 -s 7 -d -1 -p auv-SYNC -e 64 -c 2 -a 0 -i 0 -k MAC -R 1100.000000
v -t 4.849534098 -e sim_annotation 4.849534098 28 node 7 receive packet(auv-SYNC) 0
r -t 4.849687517 -s 2 -d -1 -p auv-SYNC -e 64 -c 2 -a 0 -i 0 -k MAC -R 1100.000000
v -t 4.849687517 -e sim_annotation 4.849687517 29 node 2 receive packet(auv-SYNC) 0
r -t 4.854460894 -s 4 -d -1 -p auv-SYNC -e 64 -c 2 -a 0 -i 0 -k MAC -R 1100.000000
v -t 4.854460894 -e sim_annotation 4.854460894 30 node 4 receive packet(auv-SYNC) 0
r -t 4.865452694 -s 6 -d -1 -p auv-SYNC -e 64 -c 2 -a 0 -i 0 -k MAC -R 1100.000000
v -t 4.865452694 -e sim_annotation 4.865452694 31 node 6 receive packet(auv-SYNC) 0
r -t 4.887156594 -s 5 -d -1 -p auv-SYNC -e 64 -c 2 -a 0 -i 0 -k MAC -R 1100.000000
v -t 4.887156594 -e sim_annotation 4.887156594 32 node 5 receive packet(auv-SYNC) 0
+ -t 7.208990109 -s 5 -d -1 -p auv-SYNC -e 64 -c 2 -a 0 -i 0 -k MAC 
- -t 7.208990109 -s 5 -d -1 -p auv-SYNC -e 64 -c 2 -a 0 -i 0 -k MAC
h -t 7.208990109 -s 5 -d -1 -p auv-SYNC -e 64 -c 2 -a 0 -i 0 -k MAC -R 1100.000000
v -t 7.208990109 -e sim_annotation 7.208990109 33 node 5 sendout packet (auv-SYNC) 0
+ -t 7.238569314 -s 2 -d -1 -p auv-SYNC -e 64 -c 2 -a 0 -i 0 -k MAC 
- -t 7.238569314 -s 2 -d -1 -p auv-SYNC -e 64 -c 2 -a 0 -i 0 -k MAC
h -t 7.238569314 -s 2 -d -1 -p auv-SYNC -e 64 -c 2 -a 0 -i 0 -k MAC -R 1100.000000
v -t 7.238569314 -e sim_annotation 7.238569314 34 node 2 sendout packet (auv-SYNC) 0
r -t 7.253102471 -s 7 -d -1 -p auv-SYNC -e 64 -c 2 -a 0 -i 0 -k MAC -R 1100.000000
v -t 7.253102471 -e sim_annotation 7.253102471 35 node 7 receive packet(auv-SYNC) 0
r -t 7.262572969 -s 4 -d -1 -p auv-SYNC -e 64 -c 2 -a 0 -i 0 -k MAC -R 1100.000000
v -t 7.262572969 -e sim_annotation 7.262572969 36 node 4 receive packet(auv-SYNC) 0
r -t 7.264245090 -s 0 -d -1 -p auv-SYNC -e 64 -c 2 -a 0 -i 0 -k MAC -R 1100.000000
v -t 7.264245090 -e sim_annotation 7.264245090 37 node 0 receive packet(auv-SYNC) 0
r -t 7.278541789 -s 6 -d -1 -p auv-SYNC -e 64 -c 2 -a 0 -i 0 -k MAC -R 1100.000000
v -t 7.278541789 -e sim_annotation 7.278541789 38 node 6 receive packet(auv-SYNC) 0
r -t 7.287264572 -s 1 -d -1 -p auv-SYNC -e 64 -c 2 -a 0 -i 0 -k MAC -R 1100.000000
v -t 7.287264572 -e sim_annotation 7.287264572 39 node 1 receive packet(auv-SYNC) 0
r -t 7.295667406 -s 6 -d -1 -p auv-SYNC -e 64 -c 2 -a 0 -i 0 -k MAC -R 1100.000000
v -t 7.295667406 -e sim_annotation 7.295667406 40 node 6 receive packet(auv-SYNC) 0
r -t 7.297191063 -s 3 -d -1 -p auv-SYNC -e 64 -c 2 -a 0 -i 0 -k MAC -R 1100.000000
v -t 7.297191063 -e sim_annotation 7.297191063 41 node 3 receive packet(auv-SYNC) 0
r -t 7.299980424 -s 4 -d -1 -p auv-SYNC -e 64 -c 2 -a 0 -i 0 -k MAC -R 1100.000000
v -t 7.299980424 -e sim_annotation 7.299980424 42 node 4 receive packet(auv-SYNC) 0
r -t 7.305080936 -s 3 -d -1 -p auv-SYNC -e 64 -c 2 -a 0 -i 0 -k MAC -R 1100.000000
v -t 7.305080936 -e sim_annotation 7.305080936 43 node 3 receive packet(auv-SYNC) 0
r -t 7.308246031 -s 0 -d -1 -p auv-SYNC -e 64 -c 2 -a 0 -i 0 -k MAC -R 1100.000000
v -t 7.308246031 -e sim_annotation 7.308246031 44 node 0 receive packet(auv-SYNC) 0
r -t 7.317448916 -s 2 -d -1 -p auv-SYNC -e 64 -c 2 -a 0 -i 0 -k MAC -R 1100.000000
v -t 7.317448916 -e sim_annotation 7.317448916 45 node 2 receive packet(auv-SYNC) 0
r -t 7.318713617 -s 7 -d -1 -p auv-SYNC -e 64 -c 2 -a 0 -i 0 -k MAC -R 1100.000000
v -t 7.318713617 -e sim_annotation 7.318713617 46 node 7 receive packet(auv-SYNC) 0
r -t 7.343627736 -s 1 -d -1 -p auv-SYNC -e 64 -c 2 -a 0 -i 0 -k MAC -R 1100.000000
v -t 7.343627736 -e sim_annotation 7.343627736 47 node 1 receive packet(auv-SYNC) 0
r -t 7.347028120 -s 5 -d -1 -p auv-SYNC -e 64 -c 2 -a 0 -i 0 -k MAC -R 1100.000000
v -t 7.347028120 -e sim_annotation 7.347028120 48 node 5 receive packet(auv-SYNC) 0
+ -t 8.894890511 -s 7 -d -1 -p auv-SYNC -e 64 -c 2 -a 0 -i 0 -k MAC 
- -t 8.894890511 -s 7 -d -1 -p auv-SYNC -e 64 -c 2 -a 0 -i 0 -k MAC
h -t 8.894890511 -s 7 -d -1 -p auv-SYNC -e 64 -c 2 -a 0 -i 0 -k MAC -R 1100.000000
v -t 8.894890511 -e sim_annotation 8.894890511 49 node 7 sendout packet (auv-SYNC) 0
r -t 8.929645405 -s 4 -d -1 -p auv-SYNC -e 64 -c 2 -a 0 -i 0 -k MAC -R 1100.000000
v -t 8.929645405 -e sim_annotation 8.929645405 50 node 4 receive packet(auv-SYNC) 0
r -t 8.939002873 -s 5 -d -1 -p auv-SYNC -e 64 -c 2 -a 0 -i 0 -k MAC -R 1100.000000
v -t 8.939002873 -e sim_annotation 8.939002873 51 node 5 receive packet(auv-SYNC) 0
r -t 8.953358842 -s 3 -d -1 -p auv-SYNC -e 64 -c 2 -a 0 -i 0 -k MAC -R 1100.000000
v -t 8.953358842 -e sim_annotation 8.953358842 52 node 3 receive packet(auv-SYNC) 0
r -t 8.961659745 -s 0 -d -1 -p auv-SYNC -e 64 -c 2 -a 0 -i 0 -k MAC -R 1100.000000
v -t 8.961659745 -e sim_annotation 8.961659745 53 node 0 receive packet(auv-SYNC) 0
r -t 8.964183719 -s 6 -d -1 -p auv-SYNC -e 64 -c 2 -a 0 -i 0 -k MAC -R 1100.000000
v -t 8.964183719 -e sim_annotation 8.964183719 54 node 6 receive packet(auv-SYNC) 0
r -t 8.975034814 -s 2 -d -1 -p auv-SYNC -e 64 -c 2 -a 0 -i 0 -k MAC -R 1100.000000
v -t 8.975034814 -e sim_annotation 8.975034814 55 node 2 receive packet(auv-SYNC) 0
r -t 8.994148826 -s 1 -d -1 -p auv-SYNC -e 64 -c 2 -a 0 -i 0 -k MAC -R 1100.000000
v -t 8.994148826 -e sim_annotation 8.994148826 56 node 1 receive packet(auv-SYNC) 0
+ -t 9.082793120 -s 4 -d -1 -p auv-SYNC -e 64 -c 2 -a 0 -i 0 -k MAC 
- -t 9.082793120 -s 4 -d -1 -p auv-SYNC -e 64 -c 2 -a 0 -i 0 -k MAC
h -t 9.082793120 -s 4 -d -1 -p auv-SYNC -e 64 -c 2 -a 0 -i 0 -k MAC -R 1100.000000
v -t 9.082793120 -e sim_annotation 9.082793120 57 node 4 sendout packet (auv-SYNC) 0
r -t 9.117548014 -s 7 -d -1 -p auv-SYNC -e 64 -c 2 -a 0 -i 0 -k MAC -R 1100.000000
v -t 9.117548014 -e sim_annotation 9.117548014 58 node 7 receive packet(auv-SYNC) 0
r -t 9.125149884 -s 6 -d -1 -p auv-SYNC -e 64 -c 2 -a 0 -i 0 -k MAC -R 1100.000000
v -t 9.125149884 -e sim_annotation 9.125149884 59 node 6 receive packet(auv-SYNC) 0
r -t 9.136375979 -s 5 -d -1 -p auv-SYNC -e 64 -c 2 -a 0 -i 0 -k MAC -R 1100.000000
v -t 9.136375979 -e sim_annotation 9.136375979 60 node 5 receive packet(auv-SYNC) 0
r -t 9.137308721 -s 0 -d -1 -p auv-SYNC -e 64 -c 2 -a 0 -i 0 -k MAC -R 1100.000000
v -t 9.137308721 -e sim_annotation 9.137308721 61 node 0 receive packet(auv-SYNC) 0
r -t 9.144204230 -s 2 -d -1 -p auv-SYNC -e 64 -c 2 -a 0 -i 0 -k MAC -R 1100.000000
v -t 9.144204230 -e sim_annotation 9.144204230 62 node 2 receive packet(auv-SYNC) 0
r -t 9.146188246 -s 3 -d -1 -p auv-SYNC -e 64 -c 2 -a 0 -i 0 -k MAC -R 1100.000000
v -t 9.146188246 -e sim_annotation 9.146188246 63 node 3 receive packet(auv-SYNC) 0
r -t 9.174578521 -s 1 -d -1 -p auv-SYNC -e 64 -c 2 -a 0 -i 0 -k MAC -R 1100.000000
v -t 9.174578521 -e sim_annotation 9.174578521 64 node 1 receive packet(auv-SYNC) 0
+ -t 11.073091673 -s 0 -d -1 -p auv-SYNC -e 64 -c 2 -a 0 -i 0 -k MAC 
- -t 11.073091673 -s 0 -d -1 -p auv-SYNC -e 64 -c 2 -a 0 -i 0 -k MAC
h -t 11.073091673 -s 0 -d -1 -p auv-SYNC -e 64 -c 2 -a 0 -i 0 -k MAC -R 1100.000000
v -t 11.073091673 -e sim_annotation 11.073091673 65 node 0 sendout packet (auv-SYNC) 0
r -t 11.098767449 -s 2 -d -1 -p auv-SYNC -e 64 -c 2 -a 0 -i 0 -k MAC -R 1100.000000
v -t 11.098767449 -e sim_annotation 11.098767449 66 node 2 receive packet(auv-SYNC) 0
r -t 11.112825006 -s 3 -d -1 -p auv-SYNC -e 64 -c 2 -a 0 -i 0 -k MAC -R 1100.000000
v -t 11.112825006 -e sim_annotation 11.112825006 67 node 3 receive packet(auv-SYNC) 0
r -t 11.117209927 -s 1 -d -1 -p auv-SYNC -e 64 -c 2 -a 0 -i 0 -k MAC -R 1100.000000
v -t 11.117209927 -e sim_annotation 11.117209927 68 node 1 receive packet(auv-SYNC) 0
r -t 11.120043423 -s 6 -d -1 -p auv-SYNC -e 64 -c 2 -a 0 -i 0 -k MAC -R 1100.000000
v -t 11.120043423 -e sim_annotation 11.120043423 69 node 6 receive packet(auv-SYNC) 0
r -t 11.127607274 -s 4 -d -1 -p auv-SYNC -e 64 -c 2 -a 0 -i 0 -k MAC -R 1100.000000
v -t 11.127607274 -e sim_annotation 11.127607274 70 node 4 receive packet(auv-SYNC) 0
r -t 11.139860907 -s 7 -d -1 -p auv-SYNC -e 64 -c 2 -a 0 -i 0 -k MAC -R 1100.000000
v -t 11.139860907 -e sim_annotation 11.139860907 71 node 7 receive packet(auv-SYNC) 0
r -t 11.172347595 -s 5 -d -1 -p auv-SYNC -e 64 -c 2 -a 0 -i 0 -k MAC -R 1100.000000
v -t 11.172347595 -e sim_annotation 11.172347595 72 node 5 receive packet(auv-SYNC) 0
+ -t 12.946894683 -s 1 -d -1 -p auv-SYNC -e 64 -c 2 -a 0 -i 0 -k MAC 
- -t 12.946894683 -s 1 -d -1 -p auv-SYNC -e 64 -c 2 -a 0 -i 0 -k MAC
h -t 12.946894683 -s 1 -d -1 -p auv-SYNC -e 64 -c 2 -a 0 -i 0 -k MAC -R 1100.000000
v -t 12.946894683 -e sim_annotation 12.946894683 73 node 1 sendout packet (auv-SYNC) 0
r -t 12.991012937 -s 0 -d -1 -p auv-SYNC -e 64 -c 2 -a 0 -i 0 -k MAC -R 1100.000000
v -t 12.991012937 -e sim_annotation 12.991012937 74 node 0 receive packet(auv-SYNC) 0
r -t 12.995589942 -s 2 -d -1 -p auv-SYNC -e 64 -c 2 -a 0 -i 0 -k MAC -R 1100.000000
v -t 12.995589942 -e sim_annotation 12.995589942 75 node 2 receive packet(auv-SYNC) 0
r -t 12.999966112 -s 3 -d -1 -p auv-SYNC -e 64 -c 2 -a 0 -i 0 -k MAC -R 1100.000000
v -t 12.999966112 -e sim_annotation 12.999966112 76 node 3 receive packet(auv-SYNC) 0
r -t 13.027833264 -s 6 -d -1 -p auv-SYNC -e 64 -c 2 -a 0 -i 0 -k MAC -R 1100.000000
v -t 13.027833264 -e sim_annotation 13.027833264 77 node 6 receive packet(auv-SYNC) 0
r -t 13.038680084 -s 4 -d -1 -p auv-SYNC -e 64 -c 2 -a 0 -i 0 -k MAC -R 1100.000000
v -t 13.038680084 -e sim_annotation 13.038680084 78 node 4 receive packet(auv-SYNC) 0
r -t 13.046152998 -s 7 -d -1 -p auv-SYNC -e 64 -c 2 -a 0 -i 0 -k MAC -R 1100.000000
v -t 13.046152998 -e sim_annotation 13.046152998 79 node 7 receive packet(auv-SYNC) 0
r -t 13.081532310 -s 5 -d -1 -p auv-SYNC -e 64 -c 2 -a 0 -i 0 -k MAC -R 1100.000000
v -t 13.081532310 -e sim_annotation 13.081532310 80 node 5 receive packet(auv-SYNC) 0
+ -t 14.398259232 -s 6 -d -1 -p auv-SYNC -e 64 -c 2 -a 0 -i 0 -k MAC 
- -t 14.398259232 -s 6 -d -1 -p auv-SYNC -e 64 -c 2 -a 0 -i 0 -k MAC
h -t 14.398259232 -s 6 -d -1 -p auv-SYNC -e 64 -c 2 -a 0 -i 0 -k MAC -R 1100.000000
v -t 14.398259232 -e sim_annotation 14.398259232 81 node 6 sendout packet (auv-SYNC) 0
r -t 14.438231708 -s 2 -d -1 -p auv-SYNC -e 64 -c 2 -a 0 -i 0 -k MAC -R 1100.000000
v -t 14.438231708 -e sim_annotation 14.438231708 82 node 2 receive packet(auv-SYNC) 0
r -t 14.440615996 -s 4 -d -1 -p auv-SYNC -e 64 -c 2 -a 0 -i 0 -k MAC -R 1100.000000
v -t 14.440615996 -e sim_annotation 14.440615996 83 node 4 receive packet(auv-SYNC) 0
r -t 14.445210982 -s 0 -d -1 -p auv-SYNC -e 64 -c 2 -a 0 -i 0 -k MAC -R 1100.000000
v -t 14.445210982 -e sim_annotation 14.445210982 84 node 0 receive packet(auv-SYNC) 0
r -t 14.467552440 -s 7 -d -1 -p auv-SYNC -e 64 -c 2 -a 0 -i 0 -k MAC -R 1100.000000
v -t 14.467552440 -e sim_annotation 14.467552440 85 node 7 receive packet(auv-SYNC) 0
r -t 14.472646159 -s 3 -d -1 -p auv-SYNC -e 64 -c 2 -a 0 -i 0 -k MAC -R 1100.000000
v -t 14.472646159 -e sim_annotation 14.472646159 86 node 3 receive packet(auv-SYNC) 0
r -t 14.479197813 -s 1 -d -1 -p auv-SYNC -e 64 -c 2 -a 0 -i 0 -k MAC -R 1100.000000
v -t 14.479197813 -e sim_annotation 14.479197813 87 node 1 receive packet(auv-SYNC) 0
r -t 14.484936529 -s 5 -d -1 -p auv-SYNC -e 64 -c 2 -a 0 -i 0 -k MAC -R 1100.000000
v -t 14.484936529 -e sim_annotation 14.484936529 88 node 5 receive packet(auv-SYNC) 0
+ -t 14.791065767 -s 3 -d -1 -p auv-SYNC -e 64 -c 2 -a 0 -i 0 -k MAC 
- -t 14.791065767 -s 3 -d -1 -p auv-SYNC -e 64 -c 2 -a 0 -i 0 -k MAC
h -t 14.791065767 -s 3 -d -1 -p auv-SYNC -e 64 -c 2 -a 0 -i 0 -k MAC -R 1100.000000
v -t 14.791065767 -e sim_annotation 14.791065767 89 node 3 sendout packet (auv-SYNC) 0
r -t 14.830799101 -s 0 -d -1 -p auv-SYNC -e 64 -c 2 -a 0 -i 0 -k MAC -R 1100.000000
v -t 14.830799101 -e sim_annotation 14.830799101 90 node 0 receive packet(auv-SYNC) 0
r -t 14.844137196 -s 1 -d -1 -p auv-SYNC -e 64 -c 2 -a 0 -i 0 -k MAC -R 1100.000000
v -t 14.844137196 -e sim_annotation 14.844137196 91 node 1 receive packet(auv-SYNC) 0
r -t 14.849534098 -s 7 -d -1 -p auv-SYNC -e 64 -c 2 -a 0 -i 0 -k MAC -R 1100.000000
v -t 14.849534098 -e sim_annotation 14.849534098 92 node 7 receive packet(auv-SYNC) 0
r -t 14.849687517 -s 2 -d -1 -p auv-SYNC -e 64 -c 2 -a 0 -i 0 -k MAC -R 1100.000000
v -t 14.849687517 -e sim_annotation 14.849687517 93 node 2 receive packet(auv-SYNC) 0
r -t 14.854460894 -s 4 -d -1 -p auv-SYNC -e 64 -c 2 -a 0 -i 0 -k MAC -R 1100.000000
v -t 14.854460894 -e sim_annotation 14.854460894 94 node 4 receive packet(auv-SYNC) 0
r -t 14.865452694 -s 6 -d -1 -p auv-SYNC -e 64 -c 2 -a 0 -i 0 -k MAC -R 1100.000000
v -t 14.865452694 -e sim_annotation 14.865452694 95 node 6 receive packet(auv-SYNC) 0
r -t 14.887156594 -s 5 -d -1 -p auv-SYNC -e 64 -c 2 -a 0 -i 0 -k MAC -R 1100.000000
v -t 14.887156594 -e sim_annotation 14.887156594 96 node 5 receive packet(auv-SYNC) 0
+ -t 17.208990109 -s 5 -d -1 -p auv-SYNC -e 64 -c 2 -a 0 -i 0 -k MAC 
- -t 17.208990109 -s 5 -d -1 -p auv-SYNC -e 64 -c 2 -a 0 -i 0 -k MAC
h -t 17.208990109 -s 5 -d -1 -p auv-SYNC -e 64 -c 2 -a 0 -i 0 -k MAC -R 1100.000000
v -t 17.208990109 -e sim_annotation 17.208990109 97 node 5 sendout packet (auv-SYNC) 0
+ -t 17.238569314 -s 2 -d -1 -p auv-SYNC -e 64 -c 2 -a 0 -i 0 -k MAC 
- -t 17.238569314 -s 2 -d -1 -p auv-SYNC -e 64 -c 2 -a 0 -i 0 -k MAC
h -t 17.238569314 -s 2 -d -1 -p auv-SYNC -e 64 -c 2 -a 0 -i 0 -k MAC -R 1100.000000
v -t 17.238569314 -e sim_annotation 17.238569314 98 node 2 sendout packet (auv-SYNC) 0
r -t 17.253102471 -s 7 -d -1 -p auv-SYNC -e 64 -c 2 -a 0 -i 0 -k MAC -R 1100.000000
v -t 17.253102471 -e sim_annotation 17.253102471 99 node 7 receive packet(auv-SYNC) 0
r -t 17.262572969 -s 4 -d -1 -p auv-SYNC -e 64 -c 2 -a 0 -i 0 -k MAC -R 1100.000000
v -t 17.262572969 -e sim_annotation 17.262572969 100 node 4 receive packet(auv-SYNC) 0
r -t 17.264245090 -s 0 -d -1 -p auv-SYNC -e 64 -c 2 -a 0 -i 0 -k MAC -R 1100.000000
v -t 17.264245090 -e sim_annotation 17.264245090 101 node 0 receive packet(auv-SYNC) 0
r -t 17.278541789 -s 6 -d -1 -p auv-SYNC -e 64 -c 2 -a 0 -i 0 -k MAC -R 1100.000000
v -t 17.278541789 -e sim_annotation 17.278541789 102 node 6 receive packet(auv-SYNC) 0
r -t 17.287264572 -s 1 -d -1 -p auv-SYNC -e 64 -c 2 -a 0 -i 0 -k MAC -R 1100.000000
v -t 17.287264572 -e sim_annotation 17.287264572 103 node 1 receive packet(auv-SYNC) 0
r -t 17.295667406 -s 6 -d -1 -p auv-SYNC -e 64 -c 2 -a 0 -i 0 -k MAC -R 1100.000000
v -t 17.295667406 -e sim_annotation 17.295667406 104 node 6 receive packet(auv-SYNC) 0
r -t 17.297191063 -s 3 -d -1 -p auv-SYNC -e 64 -c 2 -a 0 -i 0 -k MAC -R 1100.000000
v -t 17.297191063 -e sim_annotation 17.297191063 105 node 3 receive packet(auv-SYNC) 0
r -t 17.299980424 -s 4 -d -1 -p auv-SYNC -e 64 -c 2 -a 0 -i 0 -k MAC -R 1100.000000
v -t 17.299980424 -e sim_annotation 17.299980424 106 node 4 receive packet(auv-SYNC) 0
r -t 17.305080936 -s 3 -d -1 -p auv-SYNC -e 64 -c 2 -a 0 -i 0 -k MAC -R 1100.000000
v -t 17.305080936 -e sim_annotation 17.305080936 107 node 3 receive packet(auv-SYNC) 0
r -t 17.308246031 -s 0 -d -1 -p auv-SYNC -e 64 -c 2 -a 0 -i 0 -k MAC -R 1100.000000
v -t 17.308246031 -e sim_annotation 17.308246031 108 node 0 receive packet(auv-SYNC) 0
r -t 17.317448916 -s 2 -d -1 -p auv-SYNC -e 64 -c 2 -a 0 -i 0 -k MAC -R 1100.000000
v -t 17.317448916 -e sim_annotation 17.317448916 109 node 2 receive packet(auv-SYNC) 0
r -t 17.318713617 -s 7 -d -1 -p auv-SYNC -e 64 -c 2 -a 0 -i 0 -k MAC -R 1100.000000
v -t 17.318713617 -e sim_annotation 17.318713617 110 node 7 receive packet(auv-SYNC) 0
r -t 17.343627736 -s 1 -d -1 -p auv-SYNC -e 64 -c 2 -a 0 -i 0 -k MAC -R 1100.000000
v -t 17.343627736 -e sim_annotation 17.343627736 111 node 1 receive packet(auv-SYNC) 0
r -t 17.347028120 -s 5 -d -1 -p auv-SYNC -e 64 -c 2 -a 0 -i 0 -k MAC -R 1100.000000
v -t 17.347028120 -e sim_annotation 17.347028120 112 node 5 receive packet(auv-SYNC) 0
+ -t 18.894890511 -s 7 -d -1 -p auv-SYNC -e 64 -c 2 -a 0 -i 0 -k MAC 
- -t 18.894890511 -s 7 -d -1 -p auv-SYNC -e 64 -c 2 -a 0 -i 0 -k MAC
h -t 18.894890511 -s 7 -d -1 -p auv-SYNC -e 64 -c 2 -a 0 -i 0 -k MAC -R 1100.000000
v -t 18.894890511 -e sim_annotation 18.894890511 113 node 7 sendout packet (auv-SYNC) 0
r -t 18.929645405 -s 4 -d -1 -p auv-SYNC -e 64 -c 2 -a 0 -i 0 -k MAC -R 1100.000000
v -t 18.929645405 -e sim_annotation 18.929645405 114 node 4 receive packet(auv-SYNC) 0
r -t 18.939002873 -s 5 -d -1 -p auv-SYNC -e 64 -c 2 -a 0 -i 0 -k MAC -R 1100.000000
v -t 18.939002873 -e sim_annotation 18.939002873 115 node 5 receive packet(auv-SYNC) 0
r -t 18.953358842 -s 3 -d -1 -p auv-SYNC -e 64 -c 2 -a 0 -i 0 -k MAC -R 1100.000000
v -t 18.953358842 -e sim_annotation 18.953358842 116 node 3 receive packet(auv-SYNC) 0
r -t 18.961659745 -s 0 -d -1 -p auv-SYNC -e 64 -c 2 -a 0 -i 0 -k MAC -R 1100.000000
v -t 18.961659745 -e sim_annotation 18.961659745 117 node 0 receive packet(auv-SYNC) 0
r -t 18.964183719 -s 6 -d -1 -p auv-SYNC -e 64 -c 2 -a 0 -i 0 -k MAC -R 1100.000000
v -t 18.964183719 -e sim_annotation 18.964183719 118 node 6 receive packet(auv-SYNC) 0
r -t 18.975034814 -s 2 -d -1 -p auv-SYNC -e 64 -c 2 -a 0 -i 0 -k MAC -R 1100.000000
v -t 18.975034814 -e sim_annotation 18.975034814 119 node 2 receive packet(auv-SYNC) 0
r -t 18.994148826 -s 1 -d -1 -p auv-SYNC -e 64 -c 2 -a 0 -i 0 -k MAC -R 1100.000000
v -t 18.994148826 -e sim_annotation 18.994148826 120 node 1 receive packet(auv-SYNC) 0
+ -t 19.082793120 -s 4 -d -1 -p auv-SYNC -e 64 -c 2 -a 0 -i 0 -k MAC 
- -t 19.082793120 -s 4 -d -1 -p auv-SYNC -e 64 -c 2 -a 0 -i 0 -k MAC
h -t 19.082793120 -s 4 -d -1 -p auv-SYNC -e 64 -c 2 -a 0 -i 0 -k MAC -R 1100.000000
v -t 19.082793120 -e sim_annotation 19.082793120 121 node 4 sendout packet (auv-SYNC) 0
r -t 19.117548014 -s 7 -d -1 -p auv-SYNC -e 64 -c 2 -a 0 -i 0 -k MAC -R 1100.000000
v -t 19.117548014 -e sim_annotation 19.117548014 122 node 7 receive packet(auv-SYNC) 0
r -t 19.125149884 -s 6 -d -1 -p auv-SYNC -e 64 -c 2 -a 0 -i 0 -k MAC -R 1100.000000
v -t 19.125149884 -e sim_annotation 19.125149884 123 node 6 receive packet(auv-SYNC) 0
r -t 19.136375979 -s 5 -d -1 -p auv-SYNC -e 64 -c 2 -a 0 -i 0 -k MAC -R 1100.000000
v -t 19.136375979 -e sim_annotation 19.136375979 124 node 5 receive packet(auv-SYNC) 0
r -t 19.137308721 -s 0 -d -1 -p auv-SYNC -e 64 -c 2 -a 0 -i 0 -k MAC -R 1100.000000
v -t 19.137308721 -e sim_annotation 19.137308721 125 node 0 receive packet(auv-SYNC) 0
r -t 19.144204230 -s 2 -d -1 -p auv-SYNC -e 64 -c 2 -a 0 -i 0 -k MAC -R 1100.000000
v -t 19.144204230 -e sim_annotation 19.144204230 126 node 2 receive packet(auv-SYNC) 0
r -t 19.146188246 -s 3 -d -1 -p auv-SYNC -e 64 -c 2 -a 0 -i 0 -k MAC -R 1100.000000
v -t 19.146188246 -e sim_annotation 19.146188246 127 node 3 receive packet(auv-SYNC) 0
r -t 19.174578521 -s 1 -d -1 -p auv-SYNC -e 64 -c 2 -a 0 -i 0 -k MAC -R 1100.000000
v -t 19.174578521 -e sim_annotation 19.174578521 128 node 1 receive packet(auv-SYNC) 0
+ -t 22.593591642 -s 2 -d -1 -p auv-SYNC -e 64 -c 2 -a 0 -i 0 -k MAC 
- -t 22.593591642 -s 2 -d -1 -p auv-SYNC -e 64 -c 2 -a 0 -i 0 -k MAC
h -t 22.593591642 -s 2 -d -1 -p auv-SYNC -e 64 -c 2 -a 0 -i 0 -k MAC -R 1100.000000
v -t 22.593591642 -e sim_annotation 22.593591642 129 node 2 sendout packet (auv-SYNC) 0
r -t 22.619267419 -s 0 -d -1 -p auv-SYNC -e 64 -c 2 -a 0 -i 0 -k MAC -R 1100.000000
v -t 22.619267419 -e sim_annotation 22.619267419 130 node 0 receive packet(auv-SYNC) 0
r -t 22.633564118 -s 6 -d -1 -p auv-SYNC -e 64 -c 2 -a 0 -i 0 -k MAC -R 1100.000000
v -t 22.633564118 -e sim_annotation 22.633564118 131 node 6 receive packet(auv-SYNC) 0
r -t 22.642286901 -s 1 -d -1 -p auv-SYNC -e 64 -c 2 -a 0 -i 0 -k MAC -R 1100.000000
v -t 22.642286901 -e sim_annotation 22.642286901 132 node 1 receive packet(auv-SYNC) 0
r -t 22.652213392 -s 3 -d -1 -p auv-SYNC -e 64 -c 2 -a 0 -i 0 -k MAC -R 1100.000000
v -t 22.652213392 -e sim_annotation 22.652213392 133 node 3 receive packet(auv-SYNC) 0
r -t 22.655002752 -s 4 -d -1 -p auv-SYNC -e 64 -c 2 -a 0 -i 0 -k MAC -R 1100.000000
v -t 22.655002752 -e sim_annotation 22.655002752 134 node 4 receive packet(auv-SYNC) 0
r -t 22.673735945 -s 7 -d -1 -p auv-SYNC -e 64 -c 2 -a 0 -i 0 -k MAC -R 1100.000000
v -t 22.673735945 -e sim_annotation 22.673735945 135 node 7 receive packet(auv-SYNC) 0
r -t 22.702050449 -s 5 -d -1 -p auv-SYNC -e 64 -c 2 -a 0 -i 0 -k MAC -R 1100.000000
v -t 22.702050449 -e sim_annotation 22.702050449 136 node 5 receive packet(auv-SYNC) 0
+ -t 23.898917790 -s 5 -d -1 -p auv-SYNC -e 64 -c 2 -a 0 -i 0 -k MAC 
- -t 23.898917790 -s 5 -d -1 -p auv-SYNC -e 64 -c 2 -a 0 -i 0 -k MAC
h -t 23.898917790 -s 5 -d -1 -p auv-SYNC -e 64 -c 2 -a 0 -i 0 -k MAC -R 1100.000000
v -t 23.898917790 -e sim_annotation 23.898917790 137 node 5 sendout packet (auv-SYNC) 0
r -t 23.943030152 -s 7 -d -1 -p auv-SYNC -e 64 -c 2 -a 0 -i 0 -k MAC -R 1100.000000
v -t 23.943030152 -e sim_annotation 23.943030152 138 node 7 receive packet(auv-SYNC) 0
r -t 23.952500649 -s 4 -d -1 -p auv-SYNC -e 64 -c 2 -a 0 -i 0 -k MAC -R 1100.000000
v -t 23.952500649 -e sim_annotation 23.952500649 139 node 4 receive packet(auv-SYNC) 0
r -t 23.985595087 -s 6 -d -1 -p auv-SYNC -e 64 -c 2 -a 0 -i 0 -k MAC -R 1100.000000
v -t 23.985595087 -e sim_annotation 23.985595087 140 node 6 receive packet(auv-SYNC) 0
r -t 23.995008617 -s 3 -d -1 -p auv-SYNC -e 64 -c 2 -a 0 -i 0 -k MAC -R 1100.000000
v -t 23.995008617 -e sim_annotation 23.995008617 141 node 3 receive packet(auv-SYNC) 0
r -t 23.998173712 -s 0 -d -1 -p auv-SYNC -e 64 -c 2 -a 0 -i 0 -k MAC -R 1100.000000
v -t 23.998173712 -e sim_annotation 23.998173712 142 node 0 receive packet(auv-SYNC) 0
r -t 24.007376597 -s 2 -d -1 -p auv-SYNC -e 64 -c 2 -a 0 -i 0 -k MAC -R 1100.000000
v -t 24.007376597 -e sim_annotation 24.007376597 143 node 2 receive packet(auv-SYNC) 0
r -t 24.033555417 -s 1 -d -1 -p auv-SYNC -e 64 -c 2 -a 0 -i 0 -k MAC -R 1100.000000
v -t 24.033555417 -e sim_annotation 24.033555417 144 node 1 receive packet(auv-SYNC) 0
+ -t 24.624992623 -s 7 -d -1 -p auv-SYNC -e 64 -c 2 -a 0 -i 0 -k MAC 
- -t 24.624992623 -s 7 -d -1 -p auv-SYNC -e 64 -c 2 -a 0 -i 0 -k MAC
h -t 24.624992623 -s 7 -d -1 -p auv-SYNC -e 64 -c 2 -a 0 -i 0 -k MAC -R 1100.000000
v -t 24.624992623 -e sim_annotation 24.624992623 145 node 7 sendout packet (auv-SYNC) 0
r -t 24.659747517 -s 4 -d -1 -p auv-SYNC -e 64 -c 2 -a 0 -i 0 -k MAC -R 1100.000000
v -t 24.659747517 -e sim_annotation 24.659747517 146 node 4 receive packet(auv-SYNC) 0
r -t 24.669104985 -s 5 -d -1 -p auv-SYNC -e 64 -c 2 -a 0 -i 0 -k MAC -R 1100.000000
v -t 24.669104985 -e sim_annotation 24.669104985 147 node 5 receive packet(auv-SYNC) 0
r -t 24.683460955 -s 3 -d -1 -p auv-SYNC -e 64 -c 2 -a 0 -i 0 -k MAC -R 1100.000000
v -t 24.683460955 -e sim_annotation 24.683460955 148 node 3 receive packet(auv-SYNC) 0
r -t 24.691761858 -s 0 -d -1 -p auv-SYNC -e 64 -c 2 -a 0 -i 0 -k MAC -R 1100.000000
v -t 24.691761858 -e sim_annotation 24.691761858 149 node 0 receive packet(auv-SYNC) 0
r -t 24.694285831 -s 6 -d -1 -p auv-SYNC -e 64 -c 2 -a 0 -i 0 -k MAC -R 1100.000000
v -t 24.694285831 -e sim_annotation 24.694285831 150 node 6 receive packet(auv-SYNC) 0
r -t 24.705136926 -s 2 -d -1 -p auv-SYNC -e 64 -c 2 -a 0 -i 0 -k MAC -R 1100.000000
v -t 24.705136926 -e sim_annotation 24.705136926 151 node 2 receive packet(auv-SYNC) 0
r -t 24.724250938 -s 1 -d -1 -p auv-SYNC -e 64 -c 2 -a 0 -i 0 -k MAC -R 1100.000000
v -t 24.724250938 -e sim_annotation 24.724250938 152 node 1 receive packet(auv-SYNC) 0
+ -t 24.735100051 -s 4 -d -1 -p auv-SYNC -e 64 -c 2 -a 0 -i 0 -k MAC 
- -t 24.735100051 -s 4 -d -1 -p auv-SYNC -e 64 -c 2 -a 0 -i 0 -k MAC
h -t 24.735100051 -s 4 -d -1 -p auv-SYNC -e 64 -c 2 -a 0 -i 0 -k MAC -R 1100.000000
v -t 24.735100051 -e sim_annotation 24.735100051 153 node 4 sendout packet (auv-SYNC) 0
r -t 24.769854945 -s 7 -d -1 -p auv-SYNC -e 64 -c 2 -a 0 -i 0 -k MAC -R 1100.000000
v -t 24.769854945 -e sim_annotation 24.769854945 154 node 7 receive packet(auv-SYNC) 0
r -t 24.777456815 -s 6 -d -1 -p auv-SYNC -e 64 -c 2 -a 0 -i 0 -k MAC -R 1100.000000
v -t 24.777456815 -e sim_annotation 24.777456815 155 node 6 receive packet(auv-SYNC) 0
r -t 24.788682910 -s 5 -d -1 -p auv-SYNC -e 64 -c 2 -a 0 -i 0 -k MAC -R 1100.000000
v -t 24.788682910 -e sim_annotation 24.788682910 156 node 5 receive packet(auv-SYNC) 0
r -t 24.789615653 -s 0 -d -1 -p auv-SYNC -e 64 -c 2 -a 0 -i 0 -k MAC -R 1100.000000
v -t 24.789615653 -e sim_annotation 24.789615653 157 node 0 receive packet(auv-SYNC) 0
r -t 24.796511161 -s 2 -d -1 -p auv-SYNC -e 64 -c 2 -a 0 -i 0 -k MAC -R 1100.000000