V -t * -v 1.0a5 -a 0
W -t * -x 100 -y 100
A -t * -n 1 -p 0 -o 0xffffffff -c 31 -a 1
A -t * -h 1 -m 2147483647 -s 0
+ -t 0.296645795 -s 2 -d -1 -p auv-SYNC -e 64 -c 2 -a 0 -i 0 -k MAC 
- -t 0.296645795 -s 2 -d -1 -p auv-SYNC -e 64 -c 2 -a 0 -i 0 -k MAC
h -t 0.296645795 -s 2 -d -1 -p auv-SYNC -e 64 -c 2 -a 0 -i 0 -k MAC -R 1100.000000
v -t 0.296645795 -e sim_annotation 0.296645795 1 node 2 sendout packet (auv-SYNC) 0
+ -t 2.215919226 -s 5 -d -1 -p auv-SYNC -e 64 -c 2 -a 0 -i 0 -k MAC 
- -t 2.215919226 -s 5 -d -1 -p auv-SYNC -e 64 -c 2 -a 0 -i 0 -k MAC
h -t 2.215919226 -s 5 -d -1 -p auv-SYNC -e 64 -c 2 -a 0 -i 0 -k MAC -R 1100.000000
v -t 2.215919226 -e sim_annotation 2.215919226 2 node 5 sendout packet (auv-SYNC) 0
+ -t 2.225529987 -s 7 -d -1 -p auv-SYNC -e 64 -c 2 -a 0 -i 0 -k MAC 
- -t 2.225529987 -s 7 -d -1 -p auv-SYNC -e 64 -c 2 -a 0 -i 0 -k MAC
h -t 2.225529987 -s 7 -d -1 -p auv-SYNC -e 64 -c 2 -a 0 -i 0 -k MAC -R 1100.000000
v -t 2.225529987 -e sim_annotation 2.225529987 3 node 7 sendout packet (auv-SYNC) 0
+ -t 3.629256634 -s 3 -d -1 -p auv-SYNC -e 64 -c 2 -a 0 -i 0 -k MAC 
- -t 3.629256634 -s 3 -d -1 -p auv-SYNC -e 64 -c 2 -a 0 -i 0 -k MAC
h -t 3.629256634 -s 3 -d -1 -p auv-SYNC -e 64 -c 2 -a 0 -i 0 -k MAC -R 1100.000000
v -t 3.629256634 -e sim_annotation 3.629256634 4 node 3 sendout packet (auv-SYNC) 0
+ -t 4.100096896 -s 6 -d -1 -p auv-SYNC -e 64 -c 2 -a 0 -i 0 -k MAC 
- -t 4.100096896 -s 6 -d -1 -p auv-SYNC -e 64 -c 2 -a 0 -i 0 -k MAC
h -t 4.100096896 -s 6 -d -1 -p auv-SYNC -e 64 -c 2 -a 0 -i 0 -k MAC -R 1100.000000
v -t 4.100096896 -e sim_annotation 4.100096896 5 node 6 sendout packet (auv-SYNC) 0
+ -t 7.105357040 -s 1 -d -1 -p auv-SYNC -e 64 -c 2 -a 0 -i 0 -k MAC 
- -t 7.105357040 -s 1 -d -1 -p auv-SYNC -e 64 -c 2 -a 0 -i 0 -k MAC
h -t 7.105357040 -s 1 -d -1 -p auv-SYNC -e 64 -c 2 -a 0 -i 0 -k MAC -R 1100.000000
v -t 7.105357040 -e sim_annotation 7.105357040 6 node 1 sendout packet (auv-SYNC) 0
+ -t 7.416816519 -s 4 -d -1 -p auv-SYNC -e 64 -c 2 -a 0 -i 0 -k MAC 
- -t 7.416816519 -s 4 -d -1 -p auv-SYNC -e 64 -c 2 -a 0 -i 0 -k MAC
h -t 7.416816519 -s 4 -d -1 -p auv-SYNC -e 64 -c 2 -a 0 -i 0 -k MAC -R 1100.000000
v -t 7.416816519 -e sim_annotation 7.416816519 7 node 4 sendout packet (auv-SYNC) 0
+ -t 9.431124995 -s 0 -d -1 -p auv-SYNC -e 64 -c 2 -a 0 -i 0 -k MAC 
- -t 9.431124995 -s 0 -d -1 -p auv-SYNC -e 64 -c 2 -a 0 -i 0 -k MAC
h -t 9.431124995 -s 0 -d -1 -p auv-SYNC -e 64 -c 2 -a 0 -i 0 -k MAC -R 1100.000000
v -t 9.431124995 -e sim_annotation 9.431124995 8 node 0 sendout packet (auv-SYNC) 0
+ -t 10.296645795 -s 2 -d 0 -p vectorbasedforward -e 1696 -c 2 -a 0 -i 1 -k MAC 
- -t 10.296645795 -s 2 -d 0 -p vectorbasedforward -e 1696 -c 2 -a 0 -i 1 -k MAC
h -t 10.296645795 -s 2 -d 0 -p vectorbasedforward -e 1696 -c 2 -a 0 -i 1 -k MAC -R 1100.000000
v -t 10.296645795 -e sim_annotation 10.296645795 9 node 2 sendout packet (vectorbasedforward) 1
r -t 10.485521572 -s 0 -d 0 -p vectorbasedforward -e 1696 -c 2 -a 0 -i 1 -k MAC -R 1100.000000
v -t 10.485521572 -e sim_annotation 10.485521572 10 node 0 receive vectorbasedforward 1 from 0
+ -t 12.215919226 -s 5 -d 0 -p vectorbasedforward -e 1728 -c 2 -a 0 -i 3 -k MAC 
- -t 12.215919226 -s 5 -d 0 -p vectorbasedforward -e 1728 -c 2 -a 0 -i 3 -k MAC
h -t 12.215919226 -s 5 -d 0 -p vectorbasedforward -e 1728 -c 2 -a 0 -i 3 -k MAC -R 1100.000000
v -t 12.215919226 -e sim_annotation 12.215919226 11 node 5 sendout packet (vectorbasedforward) 3
+ -t 12.225529987 -s 7 -d -1 -p auv-SYNC -e 64 -c 2 -a 0 -i 0 -k MAC 
- -t 12.225529987 -s 7 -d -1 -p auv-SYNC -e 64 -c 2 -a 0 -i 0 -k MAC
h -t 12.225529987 -s 7 -d -1 -p auv-SYNC -e 64 -c 2 -a 0 -i 0 -k MAC -R 1100.000000
v -t 12.225529987 -e sim_annotation 12.225529987 12 node 7 sendout packet (auv-SYNC) 0
r -t 12.481575148 -s 0 -d 0 -p vectorbasedforward -e 1728 -c 2 -a 0 -i 3 -k MAC -R 1100.000000
v -t 12.481575148 -e sim_annotation 12.481575148 13 node 0 receive vectorbasedforward 3 from 0
+ -t 13.629256634 -s 3 -d -1 -p auv-SYNC -e 64 -c 2 -a 0 -i 0 -k MAC 
- -t 13.629256634 -s 3 -d -1 -p auv-SYNC -e 64 -c 2 -a 0 -i 0 -k MAC
h -t 13.629256634 -s 3 -d -1 -p auv-SYNC -e 64 -c 2 -a 0 -i 0 -k MAC -R 1100.000000
v -t 13.629256634 -e sim_annotation 13.629256634 14 node 3 sendout packet (auv-SYNC) 0
+ -t 14.100096896 -s 6 -d -1 -p auv-SYNC -e 64 -c 2 -a 0 -i 0 -k MAC 
- -t 14.100096896 -s 6 -d -1 -p auv-SYNC -e 64 -c 2 -a 0 -i 0 -k MAC
h -t 14.100096896 -s 6 -d -1 -p auv-SYNC -e 64 -c 2 -a 0 -i 0 -k MAC -R 1100.000000
v -t 14.100096896 -e sim_annotation 14.100096896 15 node 6 sendout packet (auv-SYNC) 0
+ -t 17.105357040 -s 1 -d -1 -p auv-SYNC -e 64 -c 2 -a 0 -i 0 -k MAC 
- -t 17.105357040 -s 1 -d -1 -p auv-SYNC -e 64 -c 2 -a 0 -i 0 -k MAC
h -t 17.105357040 -s 1 -d -1 -p auv-SYNC -e 64 -c 2 -a 0 -i 0 -k MAC -R 1100.000000
v -t 17.105357040 -e sim_annotation 17.105357040 16 node 1 sendout packet (auv-SYNC) 0
+ -t 17.416816519 -s 4 -d 0 -p vectorbasedforward -e 1696 -c 2 -a 0 -i 2 -k MAC 
- -t 17.416816519 -s 4 -d 0 -p vectorbasedforward -e 1696 -c 2 -a 0 -i 2 -k MAC
h -t 17.416816519 -s 4 -d 0 -p vectorbasedforward -e 1696 -c 2 -a 0 -i 2 -k MAC -R 1100.000000
v -t 17.416816519 -e sim_annotation 17.416816519 17 node 4 sendout packet (vectorbasedforward) 2
r -t 17.634532121 -s 0 -d 0 -p vectorbasedforward -e 1696 -c 2 -a 0 -i 2 -k MAC -R 1100.000000
v -t 17.634532121 -e sim_annotation 17.634532121 18 node 0 receive vectorbasedforward 2 from 0
+ -t 19.431124995 -s 0 -d 1 -p vectorbasedforward -e 1696 -c 2 -a 0 -i 0 -k MAC 
- -t 19.431124995 -s 0 -d 1 -p vectorbasedforward -e 1696 -c 2 -a 0 -i 0 -k MAC
h -t 19.431124995 -s 0 -d 1 -p vectorbasedforward -e 1696 -c 2 -a 0 -i 0 -k MAC -R 1100.000000
v -t 19.431124995 -e sim_annotation 19.431124995 19 node 0 sendout packet (vectorbasedforward) 0
r -t 19.638443249 -s 1 -d 1 -p vectorbasedforward -e 1696 -c 2 -a 0 -i 0 -k MAC -R 1100.000000
v -t 19.638443249 -e sim_annotation 19.638443249 20 node 1 receive vectorbasedforward 0 from 1
+ -t 21.565923322 -s 3 -d -1 -p auv-SYNC -e 64 -c 2 -a 0 -i 0 -k MAC 
- -t 21.565923322 -s 3 -d -1 -p auv-SYNC -e 64 -c 2 -a 0 -i 0 -k MAC
h -t 21.565923322 -s 3 -d -1 -p auv-SYNC -e 64 -c 2 -a 0 -i 0 -k MAC -R 1100.000000
v -t 21.565923322 -e sim_annotation 21.565923322 21 node 3 sendout packet (auv-SYNC) 0
+ -t 23.555169131 -s 1 -d -1 -p auv-SYNC -e 64 -c 2 -a 0 -i 0 -k MAC 
- -t 23.555169131 -s 1 -d -1 -p auv-SYNC -e 64 -c 2 -a 0 -i 0 -k MAC
h -t 23.555169131 -s 1 -d -1 -p auv-SYNC -e 64 -c 2 -a 0 -i 0 -k MAC -R 1100.000000
v -t 23.555169131 -e sim_annotation 23.555169131 22 node 1 sendout packet (auv-SYNC) 0
+ -t 25.074659551 -s 0 -d -1 -p auv-SYNC -e 64 -c 2 -a 0 -i 0 -k MAC 
- -t 25.074659551 -s 0 -d -1 -p auv-SYNC -e 64 -c 2 -a 0 -i 0 -k MAC
h -t 25.074659551 -s 0 -d -1 -p auv-SYNC -e 64 -c 2 -a 0 -i 0 -k MAC -R 1100.000000
v -t 25.074659551 -e sim_annotation 25.074659551 23 node 0 sendout packet (auv-SYNC) 0
+ -t 27.004867518 -s 4 -d -1 -p auv-SYNC -e 64 -c 2 -a 0 -i 0 -k MAC 
- -t 27.004867518 -s 4 -d -1 -p auv-SYNC -e 64 -c 2 -a 0 -i 0 -k MAC
h -t 27.004867518 -s 4 -d -1 -p auv-SYNC -e 64 -c 2 -a 0 -i 0 -k MAC -R 1100.000000
v -t 27.004867518 -e sim_annotation 27.004867518 24 node 4 sendout packet (auv-SYNC) 0
+ -t 29.535980172 -s 1 -d -1 -p auv-SYNC -e 64 -c 2 -a 0 -i 0 -k MAC 
- -t 29.535980172 -s 1 -d -1 -p auv-SYNC -e 64 -c 2 -a 0 -i 0 -k MAC
h -t 29.535980172 -s 1 -d -1 -p auv-SYNC -e 64 -c 2 -a 0 -i 0 -k MAC -R 1100.000000
v -t 29.535980172 -e sim_annotation 29.535980172 25 node 1 sendout packet (auv-SYNC) 0
+ -t 32.704135283 -s 6 -d -1 -p auv-SYNC -e 64 -c 2 -a 0 -i 0 -k MAC 
- -t 32.704135283 -s 6 -d -1 -p auv-SYNC -e 64 -c 2 -a 0 -i 0 -k MAC
h -t 32.704135283 -s 6 -d -1 -p auv-SYNC -e 64 -c 2 -a 0 -i 0 -k MAC -R 1100.000000
v -t 32.704135283 -e sim_annotation 32.704135283 26 node 6 sendout packet (auv-SYNC) 0
+ -t 47.917218811 -s 6 -d -1 -p auv-SYNC -e 64 -c 2 -a 0 -i 0 -k MAC 
- -t 47.917218811 -s 6 -d -1 -p auv-SYNC -e 64 -c 2 -a 0 -i 0 -k MAC
h -t 47.917218811 -s 6 -d -1 -p auv-SYNC -e 64 -c 2 -a 0 -i 0 -k MAC -R 1100.000000
v -t 47.917218811 -e sim_annotation 47.917218811 27 node 6 sendout packet (auv-SYNC) 0
+ -t 52.222083620 -s 7 -d -1 -p auv-SYNC -e 64 -c 2 -a 0 -i 0 -k MAC 
- -t 52.222083620 -s 7 -d -1 -p auv-SYNC -e 64 -c 2 -a 0 -i 0 -k MAC
h -t 52.222083620 -s 7 -d -1 -p auv-SYNC -e 64 -c 2 -a 0 -i 0 -k MAC -R 1100.000000
v -t 52.222083620 -e sim_annotation 52.222083620 28 node 7 sendout packet (auv-SYNC) 0
+ -t 59.125759970 -s 5 -d 1 -p vectorbasedforward -e 1792 -c 2 -a 0 -i 7 -k MAC 
- -t 59.125759970 -s 5 -d 1 -p vectorbasedforward -e 1792 -c 2 -a 0 -i 7 -k MAC
h -t 59.125759970 -s 5 -d 1 -p vectorbasedforward -e 1792 -c 2 -a 0 -i 7 -k MAC -R 1100.000000
v -t 59.125759970 -e sim_annotation 59.125759970 29 node 5 sendout packet (vectorbasedforward) 7
+ -t 60.719955025 -s 2 -d 1 -p vectorbasedforward -e 1792 -c 2 -a 0 -i 5 -k MAC 
- -t 60.719955025 -s 2 -d 1 -p vectorbasedforward -e 1792 -c 2 -a 0 -i 5 -k MAC
h -t 60.719955025 -s 2 -d 1 -p vectorbasedforward -e 1792 -c 2 -a 0 -i 5 -k MAC -R 1100.000000
v -t 60.719955025 -e sim_annotation 60.719955025 30 node 2 sendout packet (vectorbasedforward) 5
r -t 60.941450283 -s 1 -d 1 -p vectorbasedforward -e 1792 -c 2 -a 0 -i 5 -k MAC -R 1100.000000
v -t 60.941450283 -e sim_annotation 60.941450283 31 node 1 receive vectorbasedforward 5 from 1
+ -t 71.492474473 -s 3 -d -1 -p auv-SYNC -e 64 -c 2 -a 0 -i 0 -k MAC 
- -t 71.492474473 -s 3 -d -1 -p auv-SYNC -e 64 -c 2 -a 0 -i 0 -k MAC
h -t 71.492474473 -s 3 -d -1 -p auv-SYNC -e 64 -c 2 -a 0 -i 0 -k MAC -R 1100.000000
v -t 71.492474473 -e sim_annotation 71.492474473 32 node 3 sendout packet (auv-SYNC) 0
+ -t 75.223819802 -s 0 -d 2 -p vectorbasedforward -e 1760 -c 2 -a 0 -i 4 -k MAC 
- -t 75.223819802 -s 0 -d 2 -p vectorbasedforward -e 1760 -c 2 -a 0 -i 4 -k MAC
h -t 75.223819802 -s 0 -d 2 -p vectorbasedforward -e 1760 -c 2 -a 0 -i 4 -k MAC -R 1100.000000
v -t 75.223819802 -e sim_annotation 75.223819802 33 node 0 sendout packet (vectorbasedforward) 4
r -t 75.419095578 -s 2 -d 2 -p vectorbasedforward -e 1760 -c 2 -a 0 -i 4 -k MAC -R 1100.000000
v -t 75.419095578 -e sim_annotation 75.419095578 34 node 2 receive vectorbasedforward 4 from 2
+ -t 76.694001546 -s 4 -d 1 -p vectorbasedforward -e 1728 -c 2 -a 0 -i 6 -k MAC 
- -t 76.694001546 -s 4 -d 1 -p vectorbasedforward -e 1728 -c 2 -a 0 -i 6 -k MAC
h -t 76.694001546 -s 4 -d 1 -p vectorbasedforward -e 1728 -c 2 -a 0 -i 6 -k MAC -R 1100.000000
v -t 76.694001546 -e sim_annotation 76.694001546 35 node 4 sendout packet (vectorbasedforward) 6
r -t 76.952186947 -s 1 -d 1 -p vectorbasedforward -e 1728 -c 2 -a 0 -i 6 -k MAC -R 1100.000000
v -t 76.952186947 -e sim_annotation 76.952186947 36 node 1 receive vectorbasedforward 6 from 1
+ -t 77.947761476 -s 4 -d -1 -p auv-SYNC -e 64 -c 2 -a 0 -i 0 -k MAC 
- -t 77.947761476 -s 4 -d -1 -p auv-SYNC -e 64 -c 2 -a 0 -i 0 -k MAC
h -t 77.947761476 -s 4 -d -1 -p auv-SYNC -e 64 -c 2 -a 0 -i 0 -k MAC -R 1100.000000
v -t 77.947761476 -e sim_annotation 77.947761476 37 node 4 sendout packet (auv-SYNC) 0
+ -t 80.484188861 -s 1 -d -1 -p auv-SYNC -e 64 -c 2 -a 0 -i 0 -k MAC 
- -t 80.484188861 -s 1 -d -1 -p auv-SYNC -e 64 -c 2 -a 0 -i 0 -k MAC
h -t 80.484188861 -s 1 -d -1 -p auv-SYNC -e 64 -c 2 -a 0 -i 0 -k MAC -R 1100.000000
v -t 80.484188861 -e sim_annotation 80.484188861 38 node 1 sendout packet (auv-SYNC) 0
+ -t 98.894284248 -s 6 -d -1 -p auv-SYNC -e 64 -c 2 -a 0 -i 0 -k MAC 
- -t 98.894284248 -s 6 -d -1 -p auv-SYNC -e 64 -c 2 -a 0 -i 0 -k MAC
h -t 98.894284248 -s 6 -d -1 -p auv-SYNC -e 64 -c 2 -a 0 -i 0 -k MAC -R 1100.000000
v -t 98.894284248 -e sim_annotation 98.894284248 39 node 6 sendout packet (auv-SYNC) 0
+ -t 103.124013944 -s 7 -d -1 -p auv-SYNC -e 64 -c 2 -a 0 -i 0 -k MAC 
- -t 103.124013944 -s 7 -d -1 -p auv-SYNC -e 64 -c 2 -a 0 -i 0 -k MAC
h -t 103.124013944 -s 7 -d -1 -p auv-SYNC -e 64 -c 2 -a 0 -i 0 -k MAC -R 1100.000000
v -t 103.124013944 -e sim_annotation 103.124013944 40 node 7 sendout packet (auv-SYNC) 0
+ -t 108.998701703 -s 5 -d 2 -p vectorbasedforward -e 1760 -c 2 -a 0 -i 11 -k MAC 
- -t 108.998701703 -s 5 -d 2 -p vectorbasedforward -e 1760 -c 2 -a 0 -i 11 -k MAC
h -t 108.998701703 -s 5 -d 2 -p vectorbasedforward -e 1760 -c 2 -a 0 -i 11 -k MAC -R 1100.000000
v -t 108.998701703 -e sim_annotation 108.998701703 41 node 5 sendout packet (vectorbasedforward) 11
+ -t 110.586240117 -s 2 -d 3 -p vectorbasedforward -e 1760 -c 2 -a 0 -i 9 -k MAC 
- -t 110.586240117 -s 2 -d 3 -p vectorbasedforward -e 1760 -c 2 -a 0 -i 9 -k MAC
h -t 110.586240117 -s 2 -d 3 -p vectorbasedforward -e 1760 -c 2 -a 0 -i 9 -k MAC -R 1100.000000
v -t 110.586240117 -e sim_annotation 110.586240117 42 node 2 sendout packet (vectorbasedforward) 9
+ -t 122.008827256 -s 3 -d -1 -p auv-SYNC -e 64 -c 2 -a 0 -i 0 -k MAC 
- -t 122.008827256 -s 3 -d -1 -p auv-SYNC -e 64 -c 2 -a 0 -i 0 -k MAC
h -t 122.008827256 -s 3 -d -1 -p auv-SYNC -e 64 -c 2 -a 0 -i 0 -k MAC -R 1100.000000
v -t 122.008827256 -e sim_annotation 122.008827256 43 node 3 sendout packet (auv-SYNC) 0
+ -t 124.642646766 -s 0 -d 3 -p vectorbasedforward -e 1792 -c 2 -a 0 -i 8 -k MAC 
- -t 124.642646766 -s 0 -d 3 -p vectorbasedforward -e 1792 -c 2 -a 0 -i 8 -k MAC
h -t 124.642646766 -s 0 -d 3 -p vectorbasedforward -e 1792 -c 2 -a 0 -i 8 -k MAC -R 1100.000000
v -t 124.642646766 -e sim_annotation 124.642646766 44 node 0 sendout packet (vectorbasedforward) 8
+ -t 128.495038879 -s 4 -d 2 -p vectorbasedforward -e 1792 -c 2 -a 0 -i 10 -k MAC 
- -t 128.495038879 -s 4 -d 2 -p vectorbasedforward -e 1792 -c 2 -a 0 -i 10 -k MAC
h -t 128.495038879 -s 4 -d 2 -p vectorbasedforward -e 1792 -c 2 -a 0 -i 10 -k MAC -R 1100.000000
v -t 128.495038879 -e sim_annotation 128.495038879 45 node 4 sendout packet (vectorbasedforward) 10
r -t 128.729249989 -s 2 -d 2 -p vectorbasedforward -e 1792 -c 2 -a 0 -i 10 -k MAC -R 1100.000000
v -t 128.729249989 -e sim_annotation 128.729249989 46 node 2 receive vectorbasedforward 10 from 2
+ -t 130.707031168 -s 1 -d -1 -p auv-SYNC -e 64 -c 2 -a 0 -i 0 -k MAC 
- -t 130.707031168 -s 1 -d -1 -p auv-SYNC -e 64 -c 2 -a 0 -i 0 -k MAC
h -t 130.707031168 -s 1 -d -1 -p auv-SYNC -e 64 -c 2 -a 0 -i 0 -k MAC -R 1100.000000
v -t 130.707031168 -e sim_annotation 130.707031168 47 node 1 sendout packet (auv-SYNC) 0
+ -t 148.666678101 -s 6 -d -1 -p auv-SYNC -e 64 -c 2 -a 0 -i 0 -k MAC 
- -t 148.666678101 -s 6 -d -1 -p auv-SYNC -e 64 -c 2 -a 0 -i 0 -k MAC
h -t 148.666678101 -s 6 -d -1 -p auv-SYNC -e 64 -c 2 -a 0 -i 0 -k MAC -R 1100.000000
v -t 148.666678101 -e sim_annotation 148.666678101 48 node 6 sendout packet (auv-SYNC) 0
+ -t 153.821441443 -s 7 -d -1 -p auv-SYNC -e 64 -c 2 -a 0 -i 0 -k MAC 
- -t 153.821441443 -s 7 -d -1 -p auv-SYNC -e 64 -c 2 -a 0 -i 0 -k MAC
h -t 153.821441443 -s 7 -d -1 -p auv-SYNC -e 64 -c 2 -a 0 -i 0 -k MAC -R 1100.000000
v -t 153.821441443 -e sim_annotation 153.821441443 49 node 7 sendout packet (auv-SYNC) 0
+ -t 158.679348949 -s 5 -d 3 -p vectorbasedforward -e 1760 -c 2 -a 0 -i 15 -k MAC 
- -t 158.679348949 -s 5 -d 3 -p vectorbasedforward -e 1760 -c 2 -a 0 -i 15 -k MAC
h -t 158.679348949 -s 5 -d 3 -p vectorbasedforward -e 1760 -c 2 -a 0 -i 15 -k MAC -R 1100.000000
v -t 158.679348949 -e sim_annotation 158.679348949 50 node 5 sendout packet (vectorbasedforward) 15
+ -t 160.025097413 -s 2 -d 4 -p vectorbasedforward -e 1760 -c 2 -a 0 -i 13 -k MAC 
- -t 160.025097413 -s 2 -d 4 -p vectorbasedforward -e 1760 -c 2 -a 0 -i 13 -k MAC
h -t 160.025097413 -s 2 -d 4 -p vectorbasedforward -e 1760 -c 2 -a 0 -i 13 -k MAC -R 1100.000000
v -t 160.025097413 -e sim_annotation 160.025097413 51 node 2 sendout packet (vectorbasedforward) 13
+ -t 172.463962535 -s 3 -d -1 -p auv-SYNC -e 64 -c 2 -a 0 -i 0 -k MAC 
- -t 172.463962535 -s 3 -d -1 -p auv-SYNC -e 64 -c 2 -a 0 -i 0 -k MAC
h -t 172.463962535 -s 3 -d -1 -p auv-SYNC -e 64 -c 2 -a 0 -i 0 -k MAC -R 1100.000000
v -t 172.463962535 -e sim_annotation 172.463962535 52 node 3 sendout packet (auv-SYNC) 0
+ -t 174.090541384 -s 0 -d 4 -p vectorbasedforward -e 1760 -c 2 -a 0 -i 12 -k MAC 
- -t 174.090541384 -s 0 -d 4 -p vectorbasedforward -e 1760 -c 2 -a 0 -i 12 -k MAC
h -t 174.090541384 -s 0 -d 4 -p vectorbasedforward -e 1760 -c 2 -a 0 -i 12 -k MAC -R 1100.000000
v -t 174.090541384 -e sim_annotation 174.090541384 53 node 0 sendout packet (vectorbasedforward) 12
r -t 174.314656986 -s 4 -d 4 -p vectorbasedforward -e 1760 -c 2 -a 0 -i 12 -k MAC -R 1100.000000
v -t 174.314656986 -e sim_annotation 174.314656986 54 node 4 receive vectorbasedforward 12 from 4
+ -t 175.765722775 -s 0 -d -1 -p auv-SYNC -e 64 -c 2 -a 0 -i 0 -k MAC 
- -t 175.765722775 -s 0 -d -1 -p auv-SYNC -e 64 -c 2 -a 0 -i 0 -k MAC
h -t 175.765722775 -s 0 -d -1 -p auv-SYNC -e 64 -c 2 -a 0 -i 0 -k MAC -R 1100.000000
v -t 175.765722775 -e sim_annotation 175.765722775 55 node 0 sendout packet (auv-SYNC) 0
+ -t 179.090566686 -s 4 -d 3 -p vectorbasedforward -e 1792 -c 2 -a 0 -i 14 -k MAC 
- -t 179.090566686 -s 4 -d 3 -p vectorbasedforward -e 1792 -c 2 -a 0 -i 14 -k MAC
h -t 179.090566686 -s 4 -d 3 -p vectorbasedforward -e 1792 -c 2 -a 0 -i 14 -k MAC -R 1100.000000
v -t 179.090566686 -e sim_annotation 179.090566686 56 node 4 sendout packet (vectorbasedforward) 14
+ -t 180.900571092 -s 1 -d -1 -p auv-SYNC -e 64 -c 2 -a 0 -i 0 -k MAC 
- -t 180.900571092 -s 1 -d -1 -p auv-SYNC -e 64 -c 2 -a 0 -i 0 -k MAC
h -t 180.900571092 -s 1 -d -1 -p auv-SYNC -e 64 -c 2 -a 0 -i 0 -k MAC -R 1100.000000
v -t 180.900571092 -e sim_annotation 180.900571092 57 node 1 sendout packet (auv-SYNC) 0
+ -t 198.949721827 -s 6 -d -1 -p auv-SYNC -e 64 -c 2 -a 0 -i 0 -k MAC 
- -t 198.949721827 -s 6 -d -1 -p auv-SYNC -e 64 -c 2 -a 0 -i 0 -k MAC
h -t 198.949721827 -s 6 -d -1 -p auv-SYNC -e 64 -c 2 -a 0 -i 0 -k MAC -R 1100.000000
v -t 198.949721827 -e sim_annotation 198.949721827 58 node 6 sendout packet (auv-SYNC) 0
+ -t 203.802477559 -s 7 -d -1 -p auv-SYNC -e 64 -c 2 -a 0 -i 0 -k MAC 
- -t 203.802477559 -s 7 -d -1 -p auv-SYNC -e 64 -c 2 -a 0 -i 0 -k MAC
h -t 203.802477559 -s 7 -d -1 -p auv-SYNC -e 64 -c 2 -a 0 -i 0 -k MAC -R 1100.000000
v -t 203.802477559 -e sim_annotation 203.802477559 59 node 7 sendout packet (auv-SYNC) 0
+ -t 208.704141955 -s 5 -d 4 -p vectorbasedforward -e 1792 -c 2 -a 0 -i 19 -k MAC 
- -t 208.704141955 -s 5 -d 4 -p vectorbasedforward -e 1792 -c 2 -a 0 -i 19 -k MAC
h -t 208.704141955 -s 5 -d 4 -p vectorbasedforward -e 1792 -c 2 -a 0 -i 19 -k MAC -R 1100.000000
v -t 208.704141955 -e sim_annotation 208.704141955 60 node 5 sendout packet (vectorbasedforward) 19
+ -t 209.554243034 -s 2 -d 5 -p vectorbasedforward -e 1792 -c 2 -a 0 -i 17 -k MAC 
- -t 209.554243034 -s 2 -d 5 -p vectorbasedforward -e 1792 -c 2 -a 0 -i 17 -k MAC
h -t 209.554243034 -s 2 -d 5 -p vectorbasedforward -e 1792 -c 2 -a 0 -i 17 -k MAC -R 1100.000000
v -t 209.554243034 -e sim_annotation 209.554243034 61 node 2 sendout packet (vectorbasedforward) 17
r -t 209.835501840 -s 5 -d 5 -p vectorbasedforward -e 1792 -c 2 -a 0 -i 17 -k MAC -R 1100.000000
v -t 209.835501840 -e sim_annotation 209.835501840 62 node 5 receive vectorbasedforward 17 from 5
+ -t 223.440599261 -s 3 -d -1 -p auv-SYNC -e 64 -c 2 -a 0 -i 0 -k MAC 
- -t 223.440599261 -s 3 -d -1 -p auv-SYNC -e 64 -c 2 -a 0 -i 0 -k MAC
h -t 223.440599261 -s 3 -d -1 -p auv-SYNC -e 64 -c 2 -a 0 -i 0 -k MAC -R 1100.000000
v -t 223.440599261 -e sim_annotation 223.440599261 63 node 3 sendout packet (auv-SYNC) 0
+ -t 225.177257323 -s 0 -d 5 -p vectorbasedforward -e 1792 -c 2 -a 0 -i 16 -k MAC 
- -t 225.177257323 -s 0 -d 5 -p vectorbasedforward -e 1792 -c 2 -a 0 -i 16 -k MAC
h -t 225.177257323 -s 0 -d 5 -p vectorbasedforward -e 1792 -c 2 -a 0 -i 16 -k MAC -R 1100.000000
v -t 225.177257323 -e sim_annotation 225.177257323 64 node 0 sendout packet (vectorbasedforward) 16
r -t 225.449313245 -s 5 -d 5 -p vectorbasedforward -e 1792 -c 2 -a 0 -i 16 -k MAC -R 1100.000000
v -t 225.449313245 -e sim_annotation 225.449313245 65 node 5 receive vectorbasedforward 16 from 5
+ -t 229.909709506 -s 4 -d 5 -p vectorbasedforward -e 1760 -c 2 -a 0 -i 18 -k MAC 
- -t 229.909709506 -s 4 -d 5 -p vectorbasedforward -e 1760 -c 2 -a 0 -i 18 -k MAC
h -t 229.909709506 -s 4 -d 5 -p vectorbasedforward -e 1760 -c 2 -a 0 -i 18 -k MAC -R 1100.000000
v -t 229.909709506 -e sim_annotation 229.909709506 66 node 4 sendout packet (vectorbasedforward) 18
+ -t 231.455603848 -s 1 -d -1 -p auv-SYNC -e 64 -c 2 -a 0 -i 0 -k MAC 
- -t 231.455603848 -s 1 -d -1 -p auv-SYNC -e 64 -c 2 -a 0 -i 0 -k MAC
h -t 231.455603848 -s 1 -d -1 -p auv-SYNC -e 64 -c 2 -a 0 -i 0 -k MAC -R 1100.000000
v -t 231.455603848 -e sim_annotation 231.455603848 67 node 1 sendout packet (auv-SYNC) 0
+ -t 248.059302689 -s 6 -d -1 -p auv-SYNC -e 64 -c 2 -a 0 -i 0 -k MAC 
- -t 248.059302689 -s 6 -d -1 -p auv-SYNC -e 64 -c 2 -a 0 -i 0 -k MAC
h -t 248.059302689 -s 6 -d -1 -p auv-SYNC -e 64 -c 2 -a 0 -i 0 -k MAC -R 1100.000000
v -t 248.059302689 -e sim_annotation 248.059302689 68 node 6 sendout packet (auv-SYNC) 0
+ -t 254.608106415 -s 7 -d -1 -p auv-SYNC -e 64 -c 2 -a 0 -i 0 -k MAC 
- -t 254.608106415 -s 7 -d -1 -p auv-SYNC -e 64 -c 2 -a 0 -i 0 -k MAC
h -t 254.608106415 -s 7 -d -1 -p auv-SYNC -e 64 -c 2 -a 0 -i 0 -k MAC -R 1100.000000
v -t 254.608106415 -e sim_annotation 254.608106415 69 node 7 sendout packet (auv-SYNC) 0
+ -t 258.761735155 -s 2 -d 6 -p vectorbasedforward -e 1760 -c 2 -a 0 -i 21 -k MAC 
- -t 258.761735155 -s 2 -d 6 -p vectorbasedforward -e 1760 -c 2 -a 0 -i 21 -k MAC
h -t 258.761735155 -s 2 -d 6 -p vectorbasedforward -e 1760 -c 2 -a 0 -i 21 -k MAC -R 1100.000000
v -t 258.761735155 -e sim_annotation 258.761735155 70 node 2 sendout packet (vectorbasedforward) 21
+ -t 259.112734790 -s 5 -d 6 -p vectorbasedforward -e 1792 -c 2 -a 0 -i 23 -k MAC 
- -t 259.112734790 -s 5 -d 6 -p vectorbasedforward -e 1792 -c 2 -a 0 -i 23 -k MAC
h -t 259.112734790 -s 5 -d 6 -p vectorbasedforward -e 1792 -c 2 -a 0 -i 23 -k MAC -R 1100.000000
v -t 259.112734790 -e sim_annotation 259.112734790 71 node 5 sendout packet (vectorbasedforward) 23
+ -t 272.821107967 -s 3 -d -1 -p auv-SYNC -e 64 -c 2 -a 0 -i 0 -k MAC 
- -t 272.821107967 -s 3 -d -1 -p auv-SYNC -e 64 -c 2 -a 0 -i 0 -k MAC
h -t 272.821107967 -s 3 -d -1 -p auv-SYNC -e 64 -c 2 -a 0 -i 0 -k MAC -R 1100.000000
v -t 272.821107967 -e sim_annotation 272.821107967 72 node 3 sendout packet (auv-SYNC) 0
+ -t 275.901904755 -s 0 -d 6 -p vectorbasedforward -e 1792 -c 2 -a 0 -i 20 -k MAC 
- -t 275.901904755 -s 0 -d 6 -p vectorbasedforward -e 1792 -c 2 -a 0 -i 20 -k MAC
h -t 275.901904755 -s 0 -d 6 -p vectorbasedforward -e 1792 -c 2 -a 0 -i 20 -k MAC -R 1100.000000
v -t 275.901904755 -e sim_annotation 275.901904755 73 node 0 sendout packet (vectorbasedforward) 20
+ -t 278.923752945 -s 4 -d 6 -p vectorbasedforward -e 1792 -c 2 -a 0 -i 22 -k MAC 
- -t 278.923752945 -s 4 -d 6 -p vectorbasedforward -e 1792 -c 2 -a 0 -i 22 -k MAC
h -t 278.923752945 -s 4 -d 6 -p vectorbasedforward -e 1792 -c 2 -a 0 -i 22 -k MAC -R 1100.000000
v -t 278.923752945 -e sim_annotation 278.923752945 74 node 4 sendout packet (vectorbasedforward) 22
+ -t 282.352982318 -s 1 -d -1 -p auv-SYNC -e 64 -c 2 -a 0 -i 0 -k MAC 
- -t 282.352982318 -s 1 -d -1 -p auv-SYNC -e 64 -c 2 -a 0 -i 0 -k MAC
h -t 282.352982318 -s 1 -d -1 -p auv-SYNC -e 64 -c 2 -a 0 -i 0 -k MAC -R 1100.000000
v -t 282.352982318 -e sim_annotation 282.352982318 75 node 1 sendout packet (auv-SYNC) 0
+ -t 298.671233765 -s 6 -d -1 -p auv-SYNC -e 64 -c 2 -a 0 -i 0 -k MAC 
- -t 298.671233765 -s 6 -d -1 -p auv-SYNC -e 64 -c 2 -a 0 -i 0 -k MAC
h -t 298.671233765 -s 6 -d -1 -p auv-SYNC -e 64 -c 2 -a 0 -i 0 -k MAC -R 1100.000000
v -t 298.671233765 -e sim_annotation 298.671233765 76 node 6 sendout packet (auv-SYNC) 0
+ -t 304.550548494 -s 7 -d -1 -p auv-SYNC -e 64 -c 2 -a 0 -i 0 -k MAC 
- -t 304.550548494 -s 7 -d -1 -p auv-SYNC -e 64 -c 2 -a 0 -i 0 -k MAC
h -t 304.550548494 -s 7 -d -1 -p auv-SYNC -e 64 -c 2 -a 0 -i 0 -k MAC -R 1100.000000
v -t 304.550548494 -e sim_annotation 304.550548494 77 node 7 sendout packet (auv-SYNC) 0
+ -t 308.035623743 -s 2 -d 7 -p vectorbasedforward -e 1760 -c 2 -a 0 -i 25 -k MAC 
- -t 308.035623743 -s 2 -d 7 -p vectorbasedforward -e 1760 -c 2 -a 0 -i 25 -k MAC
h -t 308.035623743 -s 2 -d 7 -p vectorbasedforward -e 1760 -c 2 -a 0 -i 25 -k MAC -R 1100.000000
v -t 308.035623743 -e sim_annotation 308.035623743 78 node 2 sendout packet (vectorbasedforward) 25
+ -t 309.067536036 -s 5 -d 7 -p vectorbasedforward -e 1824 -c 2 -a 0 -i 27 -k MAC 
- -t 309.067536036 -s 5 -d 7 -p vectorbasedforward -e 1824 -c 2 -a 0 -i 27 -k MAC
h -t 309.067536036 -s 5 -d 7 -p vectorbasedforward -e 1824 -c 2 -a 0 -i 27 -k MAC -R 1100.000000
v -t 309.067536036 -e sim_annotation 309.067536036 79 node 5 sendout packet (vectorbasedforward) 27
+ -t 321.941948167 -s 3 -d -1 -p auv-SYNC -e 64 -c 2 -a 0 -i 0 -k MAC 
- -t 321.941948167 -s 3 -d -1 -p auv-SYNC -e 64 -c 2 -a 0 -i 0 -k MAC
h -t 321.941948167 -s 3 -d -1 -p auv-SYNC -e 64 -c 2 -a 0 -i 0 -k MAC -R 1100.000000
v -t 321.941948167 -e sim_annotation 321.941948167 80 node 3 sendout packet (auv-SYNC) 0
+ -t 326.072224619 -s 0 -d -1 -p auv-SYNC -e 64 -c 2 -a 0 -i 0 -k MAC 
- -t 326.072224619 -s 0 -d -1 -p auv-SYNC -e 64 -c 2 -a 0 -i 0 -k MAC
h -t 326.072224619 -s 0 -d -1 -p auv-SYNC -e 64 -c 2 -a 0 -i 0 -k MAC -R 1100.000000
v -t 326.072224619 -e sim_annotation 326.072224619 81 node 0 sendout packet (auv-SYNC) 0
+ -t 328.960287040 -s 4 -d -1 -p auv-SYNC -e 64 -c 2 -a 0 -i 0 -k MAC 
- -t 328.960287040 -s 4 -d -1 -p auv-SYNC -e 64 -c 2 -a 0 -i 0 -k MAC
h -t 328.960287040 -s 4 -d -1 -p auv-SYNC -e 64 -c 2 -a 0 -i 0 -k MAC -R 1100.000000
v -t 328.960287040 -e sim_annotation 328.960287040 82 node 4 sendout packet (auv-SYNC) 0
+ -t 333.122674156 -s 1 -d -1 -p auv-SYNC -e 64 -c 2 -a 0 -i 0 -k MAC 
- -t 333.122674156 -s 1 -d -1 -p auv-SYNC -e 64 -c 2 -a 0 -i 0 -k MAC
h -t 333.122674156 -s 1 -d -1 -p auv-SYNC -e 64 -c 2 -a 0 -i 0 -k MAC -R 1100.000000
v -t 333.122674156 -e sim_annotation 333.122674156 83 node 1 sendout packet (auv-SYNC) 0
+ -t 336.072224619 -s 0 -d 7 -p vectorbasedforward -e 1760 -c 2 -a 0 -i 24 -k MAC 
- -t 336.072224619 -s 0 -d 7 -p vectorbasedforward -e 1760 -c 2 -a 0 -i 24 -k MAC
h -t 336.072224619 -s 0 -d 7 -p vectorbasedforward -e 1760 -c 2 -a 0 -i 24 -k MAC -R 1100.000000
v -t 336.072224619 -e sim_annotation 336.072224619 84 node 0 sendout packet (vectorbasedforward) 24
+ -t 338.960287040 -s 4 -d 7 -p vectorbasedforward -e 1792 -c 2 -a 0 -i 26 -k MAC 
- -t 338.960287040 -s 4 -d 7 -p vectorbasedforward -e 1792 -c 2 -a 0 -i 26 -k MAC
h -t 338.960287040 -s 4 -d 7 -p vectorbasedforward -e 1792 -c 2 -a 0 -i 26 -k MAC -R 1100.000000
v -t 338.960287040 -e sim_annotation 338.960287040 85 node 4 sendout packet (vectorbasedforward) 26
+ -t 343.122674156 -s 1 -d -1 -p auv-SYNC -e 64 -c 2 -a 0 -i 0 -k MAC 
- -t 343.122674156 -s 1 -d -1 -p auv-SYNC -e 64 -c 2 -a 0 -i 0 -k MAC
h -t 343.122674156 -s 1 -d -1 -p auv-SYNC -e 64 -c 2 -a 0 -i 0 -k MAC -R 1100.000000
v -t 343.122674156 -e sim_annotation 343.122674156 86 node 1 sendout packet (auv-SYNC) 0
+ -t 348.054845914 -s 6 -d -1 -p auv-SYNC -e 64 -c 2 -a 0 -i 0 -k MAC 
- -t 348.054845914 -s 6 -d -1 -p auv-SYNC -e 64 -c 2 -a 0 -i 0 -k MAC
h -t 348.054845914 -s 6 -d -1 -p auv-SYNC -e 64 -c 2 -a 0 -i 0 -k MAC -R 1100.000000
v -t 348.054845914 -e sim_annotation 348.054845914 87 node 6 sendout packet (auv-SYNC) 0
+ -t 353.802138476 -s 7 -d -1 -p auv-SYNC -e 64 -c 2 -a 0 -i 0 -k MAC 
- -t 353.802138476 -s 7 -d -1 -p auv-SYNC -e 64 -c 2 -a 0 -i 0 -k MAC
h -t 353.802138476 -s 7 -d -1 -p auv-SYNC -e 64 -c 2 -a 0 -i 0 -k MAC -R 1100.000000
v -t 353.802138476 -e sim_annotation 353.802138476 88 node 7 sendout packet (auv-SYNC) 0
+ -t 357.153729087 -s 2 -d 0 -p vectorbasedforward -e 1760 -c 2 -a 0 -i 29 -k MAC 
- -t 357.153729087 -s 2 -d 0 -p vectorbasedforward -e 1760 -c 2 -a 0 -i 29 -k MAC
h -t 357.153729087 -s 2 -d 0 -p vectorbasedforward -e 1760 -c 2 -a 0 -i 29 -k MAC -R 1100.000000
v -t 357.153729087 -e sim_annotation 357.153729087 89 node 2 sendout packet (vectorbasedforward) 29
+ -t 358.054845914 -s 6 -d -1 -p auv-SYNC -e 64 -c 2 -a 0 -i 0 -k MAC 
- -t 358.054845914 -s 6 -d -1 -p auv-SYNC -e 64 -c 2 -a 0 -i 0 -k MAC
h -t 358.054845914 -s 6 -d -1 -p auv-SYNC -e 64 -c 2 -a 0 -i 0 -k MAC -R 1100.000000
v -t 358.054845914 -e sim_annotation 358.054845914 90 node 6 sendout packet (auv-SYNC) 0
+ -t 358.226336271 -s 5 -d 0 -p vectorbasedforward -e 1824 -c 2 -a 0 -i 31 -k MAC 
- -t 358.226336271 -s 5 -d 0 -p vectorbasedforward -e 1824 -c 2 -a 0 -i 31 -k MAC
h -t 358.226336271 -s 5 -d 0 -p vectorbasedforward -e 1824 -c 2 -a 0 -i 31 -k MAC -R 1100.000000
v -t 358.226336271 -e sim_annotation 358.226336271 91 node 5 sendout packet (vectorbasedforward) 31
r -t 358.501592193 -s 0 -d 0 -p vectorbasedforward -e 1824 -c 2 -a 0 -i 31 -k MAC -R 1100.000000
v -t 358.501592193 -e sim_annotation 358.501592193 92 node 0 receive vectorbasedforward 31 from 0
+ -t 360.613738000 -s 5 -d -1 -p auv-SYNC -e 64 -c 2 -a 0 -i 0 -k MAC 
- -t 360.613738000 -s 5 -d -1 -p auv-SYNC -e 64 -c 2 -a 0 -i 0 -k MAC
h -t 360.613738000 -s 5 -d -1 -p auv-SYNC -e 64 -c 2 -a 0 -i 0 -k MAC -R 1100.000000
v -t 360.613738000 -e sim_annotation 360.613738000 93 node 5 sendout packet (auv-SYNC) 0
+ -t 364.676686988 -s 5 -d -1 -p auv-SYNC -e 64 -c 2 -a 0 -i 0 -k MAC 
- -t 364.676686988 -s 5 -d -1 -p auv-SYNC -e 64 -c 2 -a 0 -i 0 -k MAC
h -t 364.676686988 -s 5 -d -1 -p auv-SYNC -e 64 -c 2 -a 0 -i 0 -k MAC -R 1100.000000
v -t 364.676686988 -e sim_annotation 364.676686988 94 node 5 sendout packet (auv-SYNC) 0
+ -t 371.609567993 -s 3 -d -1 -p auv-SYNC -e 64 -c 2 -a 0 -i 0 -k MAC 
- -t 371.609567993 -s 3 -d -1 -p auv-SYNC -e 64 -c 2 -a 0 -i 0 -k MAC
h -t 371.609567993 -s 3 -d -1 -p auv-SYNC -e 64 -c 2 -a 0 -i 0 -k MAC -R 1100.000000
v -t 371.609567993 -e sim_annotation 371.609567993 95 node 3 sendout packet (auv-SYNC) 0
+ -t 381.609567993 -s 3 -d -1 -p auv-SYNC -e 64 -c 2 -a 0 -i 0 -k MAC 
- -t 381.609567993 -s 3 -d -1 -p auv-SYNC -e 64 -c 2 -a 0 -i 0 -k MAC
h -t 381.609567993 -s 3 -d -1 -p auv-SYNC -e 64 -c 2 -a 0 -i 0 -k MAC -R 1100.000000