SillyRrouting
M 0.0 nn 8 x 100 y 100 z 0
M 0.0 prop Propagation/UnderwaterPropagation ant Antenna/OmniAntenna
N -t 1.000000 -n 0 -e 9999.992000
N -t 1.000000 -n 1 -e 9999.992000
N -t 1.000000 -n 2 -e 9999.992000
N -t 1.000000 -n 3 -e 9999.992000
N -t 1.000000 -n 4 -e 9999.992000
N -t 1.000000 -n 5 -e 9999.992000
N -t 1.000000 -n 6 -e 9999.992000
N -t 1.000000 -n 7 -e 9999.992000
N -t 2.000000 -n 0 -e 9999.984000
N -t 2.000000 -n 1 -e 9999.984000
N -t 2.000000 -n 2 -e 9999.984000
N -t 2.000000 -n 3 -e 9999.984000
N -t 2.000000 -n 4 -e 9999.984000
N -t 2.000000 -n 5 -e 9999.984000
N -t 2.000000 -n 6 -e 9999.984000
N -t 2.000000 -n 7 -e 9999.984000
s 2.752019213 _2_ MAC  --- 0 auv-SYNC 64 [0 2000000 ffff0000 0] [energy 9999.984000 ei 0.016 es 0.000 et 0.000 er 0.000] ------- [0:0 0:0 0 0] 
N -t 3.000000 -n 0 -e 9999.973523
N -t 3.000000 -n 1 -e 9999.973523
N -t 3.000000 -n 2 -e 9999.971827
N -t 3.000000 -n 3 -e 9999.973523
N -t 3.000000 -n 4 -e 9999.973523
N -t 3.000000 -n 5 -e 9999.973523
N -t 3.000000 -n 6 -e 9999.973523
N -t 3.000000 -n 7 -e 9999.973523
s 3.301327874 _6_ MAC  --- 0 auv-SYNC 64 [0 6000000 ffff0000 0] [energy 9999.973523 ei 0.024 es 0.000 et 0.000 er 0.003] ------- [0:0 0:0 0 0] 
N -t 4.000000 -n 0 -e 9999.963046
N -t 4.000000 -n 1 -e 9999.963046
N -t 4.000000 -n 2 -e 9999.961350
N -t 4.000000 -n 3 -e 9999.963046
N -t 4.000000 -n 4 -e 9999.963046
N -t 4.000000 -n 5 -e 9999.963046
N -t 4.000000 -n 6 -e 9999.961350
N -t 4.000000 -n 7 -e 9999.963046
N -t 5.000000 -n 0 -e 9999.955046
N -t 5.000000 -n 1 -e 9999.955046
N -t 5.000000 -n 2 -e 9999.953350
N -t 5.000000 -n 3 -e 9999.955046
N -t 5.000000 -n 4 -e 9999.955046
N -t 5.000000 -n 5 -e 9999.955046
N -t 5.000000 -n 6 -e 9999.953350
N -t 5.000000 -n 7 -e 9999.955046
s 5.646135761 _0_ MAC  --- 0 auv-SYNC 64 [0 0 ffff0000 0] [energy 9999.955046 ei 0.040 es 0.000 et 0.000 er 0.005] ------- [0:0 0:0 0 0] 
N -t 6.000000 -n 0 -e 9999.942874
N -t 6.000000 -n 1 -e 9999.944570
N -t 6.000000 -n 2 -e 9999.942874
N -t 6.000000 -n 3 -e 9999.944570
N -t 6.000000 -n 4 -e 9999.944570
N -t 6.000000 -n 5 -e 9999.944570
N -t 6.000000 -n 6 -e 9999.942874
N -t 6.000000 -n 7 -e 9999.944570
s 6.402169626 _7_ MAC  --- 0 auv-SYNC 64 [0 7000000 ffff0000 0] [energy 9999.944570 ei 0.048 es 0.000 et 0.000 er 0.008] ------- [0:0 0:0 0 0] 
N -t 7.000000 -n 0 -e 9999.932397
N -t 7.000000 -n 1 -e 9999.934093
N -t 7.000000 -n 2 -e 9999.932397
N -t 7.000000 -n 3 -e 9999.934093
N -t 7.000000 -n 4 -e 9999.934093
N -t 7.000000 -n 5 -e 9999.934093
N -t 7.000000 -n 6 -e 9999.932397
N -t 7.000000 -n 7 -e 9999.932397
s 7.340918771 _1_ MAC  --- 0 auv-SYNC 64 [0 1000000 ffff0000 0] [energy 9999.934093 ei 0.056 es 0.000 et 0.000 er 0.010] ------- [0:0 0:0 0 0] 
s 7.448749038 _3_ MAC  --- 0 auv-SYNC 64 [0 3000000 ffff0000 0] [energy 9999.928464 ei 0.059 es 0.000 et 0.000 er 0.013] ------- [0:0 0:0 0 0] 
s 7.937189904 _4_ MAC  --- 0 auv-SYNC 64 [0 4000000 ffff0000 0] [energy 9999.925042 ei 0.060 es 0.000 et 0.000 er 0.015] ------- [0:0 0:0 0 0] 
N -t 8.000000 -n 0 -e 9999.916966
N -t 8.000000 -n 1 -e 9999.919443
N -t 8.000000 -n 2 -e 9999.916966
N -t 8.000000 -n 3 -e 9999.916962
N -t 8.000000 -n 4 -e 9999.916966
N -t 8.000000 -n 5 -e 9999.918662
N -t 8.000000 -n 6 -e 9999.916966
N -t 8.000000 -n 7 -e 9999.916966
s 8.168359705 _5_ MAC  --- 0 auv-SYNC 64 [0 5000000 ffff0000 0] [energy 9999.918662 ei 0.064 es 0.000 et 0.000 er 0.018] ------- [0:0 0:0 0 0] 
N -t 9.000000 -n 0 -e 9999.906490
N -t 9.000000 -n 1 -e 9999.906490
N -t 9.000000 -n 2 -e 9999.906490
N -t 9.000000 -n 3 -e 9999.906490
N -t 9.000000 -n 4 -e 9999.906490
N -t 9.000000 -n 5 -e 9999.906490
N -t 9.000000 -n 6 -e 9999.906490
N -t 9.000000 -n 7 -e 9999.906490
N -t 10.000000 -n 0 -e 9999.898490
N -t 10.000000 -n 1 -e 9999.898490
N -t 10.000000 -n 2 -e 9999.898490
N -t 10.000000 -n 3 -e 9999.898490
N -t 10.000000 -n 4 -e 9999.898490
N -t 10.000000 -n 5 -e 9999.898490
N -t 10.000000 -n 6 -e 9999.898490
N -t 10.000000 -n 7 -e 9999.898490
N -t 11.000000 -n 0 -e 9999.890490
N -t 11.000000 -n 1 -e 9999.890490
N -t 11.000000 -n 2 -e 9999.890490
N -t 11.000000 -n 3 -e 9999.890490
N -t 11.000000 -n 4 -e 9999.890490
N -t 11.000000 -n 5 -e 9999.890490
N -t 11.000000 -n 6 -e 9999.890490
N -t 11.000000 -n 7 -e 9999.890490
N -t 12.000000 -n 0 -e 9999.882490
N -t 12.000000 -n 1 -e 9999.882490
N -t 12.000000 -n 2 -e 9999.882490
N -t 12.000000 -n 3 -e 9999.882490
N -t 12.000000 -n 4 -e 9999.882490
N -t 12.000000 -n 5 -e 9999.882490
N -t 12.000000 -n 6 -e 9999.882490
N -t 12.000000 -n 7 -e 9999.882490
N -t 13.000000 -n 0 -e 9999.874490
N -t 13.000000 -n 1 -e 9999.874490
N -t 13.000000 -n 2 -e 9999.874490
N -t 13.000000 -n 3 -e 9999.874490
N -t 13.000000 -n 4 -e 9999.874490
N -t 13.000000 -n 5 -e 9999.874490
N -t 13.000000 -n 6 -e 9999.874490
N -t 13.000000 -n 7 -e 9999.874490
N -t 14.000000 -n 0 -e 9999.866490
N -t 14.000000 -n 1 -e 9999.866490
N -t 14.000000 -n 2 -e 9999.866490
N -t 14.000000 -n 3 -e 9999.866490
N -t 14.000000 -n 4 -e 9999.866490
N -t 14.000000 -n 5 -e 9999.866490
N -t 14.000000 -n 6 -e 9999.866490
N -t 14.000000 -n 7 -e 9999.866490
N -t 15.000000 -n 0 -e 9999.858490
N -t 15.000000 -n 1 -e 9999.858490
N -t 15.000000 -n 2 -e 9999.858490
N -t 15.000000 -n 3 -e 9999.858490
N -t 15.000000 -n 4 -e 9999.858490
N -t 15.000000 -n 5 -e 9999.858490
N -t 15.000000 -n 6 -e 9999.858490
N -t 15.000000 -n 7 -e 9999.858490
s 15.646135761 _0_ MAC  --- 0 vectorbasedforward 1760 [0 0 8 0] [energy 9999.854098 ei 0.124 es 0.000 et 0.004 er 0.018] ------- [0:0 0:255 0 1] 
r 15.859854015 _1_ MAC  --- 0 vectorbasedforward 1760 [0 0 8 0] [energy 9999.783557 ei 0.125 es 0.000 et 0.004 er 0.087] ------- [0:0 0:255 0 1] 
N -t 16.000000 -n 0 -e 9999.736515
N -t 16.000000 -n 1 -e 9999.782436
N -t 16.000000 -n 2 -e 9999.782616
N -t 16.000000 -n 3 -e 9999.782454
N -t 16.000000 -n 4 -e 9999.782828
N -t 16.000000 -n 5 -e 9999.782831
N -t 16.000000 -n 6 -e 9999.782378
N -t 16.000000 -n 7 -e 9999.782711
N -t 17.000000 -n 0 -e 9999.728515
N -t 17.000000 -n 1 -e 9999.774436
N -t 17.000000 -n 2 -e 9999.774616
N -t 17.000000 -n 3 -e 9999.774454
N -t 17.000000 -n 4 -e 9999.774828
N -t 17.000000 -n 5 -e 9999.774831
N -t 17.000000 -n 6 -e 9999.774378
N -t 17.000000 -n 7 -e 9999.774711
N -t 18.000000 -n 0 -e 9999.720515
N -t 18.000000 -n 1 -e 9999.766436
N -t 18.000000 -n 2 -e 9999.766616
N -t 18.000000 -n 3 -e 9999.766454
N -t 18.000000 -n 4 -e 9999.766828
N -t 18.000000 -n 5 -e 9999.766831
N -t 18.000000 -n 6 -e 9999.766378
N -t 18.000000 -n 7 -e 9999.766711
N -t 19.000000 -n 0 -e 9999.712515
N -t 19.000000 -n 1 -e 9999.758436
N -t 19.000000 -n 2 -e 9999.758616
N -t 19.000000 -n 3 -e 9999.758454
N -t 19.000000 -n 4 -e 9999.758828
N -t 19.000000 -n 5 -e 9999.758831
N -t 19.000000 -n 6 -e 9999.758378
N -t 19.000000 -n 7 -e 9999.758711
N -t 20.000000 -n 0 -e 9999.704515
N -t 20.000000 -n 1 -e 9999.750436
N -t 20.000000 -n 2 -e 9999.750616
N -t 20.000000 -n 3 -e 9999.750454
N -t 20.000000 -n 4 -e 9999.750828
N -t 20.000000 -n 5 -e 9999.750831
N -t 20.000000 -n 6 -e 9999.750378
N -t 20.000000 -n 7 -e 9999.750711
s 60.563280082 _0_ MAC  --- 1 vectorbasedforward 1920 [0 0 8 0] [energy 9999.700769 ei 0.161 es 0.000 et 0.120 er 0.018] ------- [0:0 0:255 0 2] 
r 60.774555859 _2_ MAC  --- 1 vectorbasedforward 1920 [0 0 8 0] [energy 9999.670711 ei 0.162 es 0.000 et 0.004 er 0.163] ------- [0:0 0:255 0 2] 
s 109.738997437 _0_ MAC  --- 2 vectorbasedforward 1920 [0 0 8 0] [energy 9999.557180 ei 0.178 es 0.000 et 0.247 er 0.018] ------- [0:0 0:255 0 3] 
s 159.654208771 _0_ MAC  --- 3 vectorbasedforward 1920 [0 0 8 0] [energy 9999.413590 ei 0.195 es 0.000 et 0.374 er 0.018] ------- [0:0 0:255 0 4] 
s 210.327133081 _0_ MAC  --- 4 vectorbasedforward 1920 [0 0 8 0] [energy 9999.270001 ei 0.212 es 0.000 et 0.501 er 0.018] ------- [0:0 0:255 0 5] 
s 259.610416378 _0_ MAC  --- 5 vectorbasedforward 1920 [0 0 8 0] [energy 9999.126412 ei 0.229 es 0.000 et 0.627 er 0.018] ------- [0:0 0:255 0 6] 
s 309.940132079 _0_ MAC  --- 6 vectorbasedforward 1920 [0 0 8 0] [energy 9998.982822 ei 0.245 es 0.000 et 0.754 er 0.018] ------- [0:0 0:255 0 7] 
s 359.427037846 _0_ MAC  --- 7 vectorbasedforward 1920 [0 0 8 0] [energy 9998.839233 ei 0.262 es 0.000 et 0.881 er 0.018] ------- [0:0 0:255 0 1] 
