SillyRrouting
M 0.0 nn 8 x 100 y 100 z 0
M 0.0 prop Propagation/UnderwaterPropagation ant Antenna/OmniAntenna
s 0.296645795 _2_ MAC  --- 0 auv-SYNC 64 [0 2000000 ffff0000 0] [energy 10000.000000 ei 0.000 es 0.000 et 0.000 er 0.000] ------- [0:0 0:0 0 0] 
N -t 1.000000 -n 0 -e 9999.989523
N -t 1.000000 -n 1 -e 9999.989523
N -t 1.000000 -n 2 -e 9999.987827
N -t 1.000000 -n 3 -e 9999.989523
N -t 1.000000 -n 4 -e 9999.989523
N -t 1.000000 -n 5 -e 9999.989523
N -t 1.000000 -n 6 -e 9999.989523
N -t 1.000000 -n 7 -e 9999.989523
N -t 2.000000 -n 0 -e 9999.981523
N -t 2.000000 -n 1 -e 9999.981523
N -t 2.000000 -n 2 -e 9999.979827
N -t 2.000000 -n 3 -e 9999.981523
N -t 2.000000 -n 4 -e 9999.981523
N -t 2.000000 -n 5 -e 9999.981523
N -t 2.000000 -n 6 -e 9999.981523
N -t 2.000000 -n 7 -e 9999.981523
s 2.215919226 _5_ MAC  --- 0 auv-SYNC 64 [0 5000000 ffff0000 0] [energy 9999.981523 ei 0.016 es 0.000 et 0.000 er 0.003] ------- [0:0 0:0 0 0] 
s 2.225529987 _7_ MAC  --- 0 auv-SYNC 64 [0 7000000 ffff0000 0] [energy 9999.981523 ei 0.016 es 0.000 et 0.000 er 0.003] ------- [0:0 0:0 0 0] 
N -t 3.000000 -n 0 -e 9999.968570
N -t 3.000000 -n 1 -e 9999.968570
N -t 3.000000 -n 2 -e 9999.966874
N -t 3.000000 -n 3 -e 9999.968570
N -t 3.000000 -n 4 -e 9999.968570
N -t 3.000000 -n 5 -e 9999.966874
N -t 3.000000 -n 6 -e 9999.968570
N -t 3.000000 -n 7 -e 9999.966874
s 3.629256634 _3_ MAC  --- 0 auv-SYNC 64 [0 3000000 ffff0000 0] [energy 9999.968570 ei 0.024 es 0.000 et 0.000 er 0.008] ------- [0:0 0:0 0 0] 
N -t 4.000000 -n 0 -e 9999.958093
N -t 4.000000 -n 1 -e 9999.958093
N -t 4.000000 -n 2 -e 9999.956397
N -t 4.000000 -n 3 -e 9999.956397
N -t 4.000000 -n 4 -e 9999.958093
N -t 4.000000 -n 5 -e 9999.956397
N -t 4.000000 -n 6 -e 9999.958093
N -t 4.000000 -n 7 -e 9999.956397
s 4.100096896 _6_ MAC  --- 0 auv-SYNC 64 [0 6000000 ffff0000 0] [energy 9999.958093 ei 0.032 es 0.000 et 0.000 er 0.010] ------- [0:0 0:0 0 0] 
N -t 5.000000 -n 0 -e 9999.947616
N -t 5.000000 -n 1 -e 9999.947616
N -t 5.000000 -n 2 -e 9999.945920
N -t 5.000000 -n 3 -e 9999.945920
N -t 5.000000 -n 4 -e 9999.947616
N -t 5.000000 -n 5 -e 9999.945920
N -t 5.000000 -n 6 -e 9999.945920
N -t 5.000000 -n 7 -e 9999.945920
N -t 6.000000 -n 0 -e 9999.939616
N -t 6.000000 -n 1 -e 9999.939616
N -t 6.000000 -n 2 -e 9999.937920
N -t 6.000000 -n 3 -e 9999.937920
N -t 6.000000 -n 4 -e 9999.939616
N -t 6.000000 -n 5 -e 9999.937920
N -t 6.000000 -n 6 -e 9999.937920
N -t 6.000000 -n 7 -e 9999.937920
N -t 7.000000 -n 0 -e 9999.931616
N -t 7.000000 -n 1 -e 9999.931616
N -t 7.000000 -n 2 -e 9999.929920
N -t 7.000000 -n 3 -e 9999.929920
N -t 7.000000 -n 4 -e 9999.931616
N -t 7.000000 -n 5 -e 9999.929920
N -t 7.000000 -n 6 -e 9999.929920
N -t 7.000000 -n 7 -e 9999.929920
s 7.105357040 _1_ MAC  --- 0 auv-SYNC 64 [0 1000000 ffff0000 0] [energy 9999.931616 ei 0.056 es 0.000 et 0.000 er 0.013] ------- [0:0 0:0 0 0] 
s 7.416816519 _4_ MAC  --- 0 auv-SYNC 64 [0 4000000 ffff0000 0] [energy 9999.927562 ei 0.057 es 0.000 et 0.000 er 0.015] ------- [0:0 0:0 0 0] 
N -t 8.000000 -n 0 -e 9999.918662
N -t 8.000000 -n 1 -e 9999.916966
N -t 8.000000 -n 2 -e 9999.916966
N -t 8.000000 -n 3 -e 9999.916966
N -t 8.000000 -n 4 -e 9999.916966
N -t 8.000000 -n 5 -e 9999.916966
N -t 8.000000 -n 6 -e 9999.916966
N -t 8.000000 -n 7 -e 9999.916966
N -t 9.000000 -n 0 -e 9999.910662
N -t 9.000000 -n 1 -e 9999.908966
N -t 9.000000 -n 2 -e 9999.908966
N -t 9.000000 -n 3 -e 9999.908966
N -t 9.000000 -n 4 -e 9999.908966
N -t 9.000000 -n 5 -e 9999.908966
N -t 9.000000 -n 6 -e 9999.908966
N -t 9.000000 -n 7 -e 9999.908966
s 9.431124995 _0_ MAC  --- 0 auv-SYNC 64 [0 0 ffff0000 0] [energy 9999.910662 ei 0.072 es 0.000 et 0.000 er 0.018] ------- [0:0 0:0 0 0] 
N -t 10.000000 -n 0 -e 9999.898490
N -t 10.000000 -n 1 -e 9999.898490
N -t 10.000000 -n 2 -e 9999.898490
N -t 10.000000 -n 3 -e 9999.898490
N -t 10.000000 -n 4 -e 9999.898490
N -t 10.000000 -n 5 -e 9999.898490
N -t 10.000000 -n 6 -e 9999.898490
N -t 10.000000 -n 7 -e 9999.898490
s 10.296645795 _2_ MAC  --- 1 vectorbasedforward 1696 [0 2000000 8 0] [energy 9999.898490 ei 0.080 es 0.000 et 0.004 er 0.018] ------- [2:0 2:255 0 0] 
r 10.485521572 _0_ MAC  --- 1 vectorbasedforward 1696 [0 2000000 8 0] [energy 9999.828970 ei 0.082 es 0.000 et 0.004 er 0.085] ------- [2:0 2:255 0 0] 
N -t 11.000000 -n 0 -e 9999.824854
N -t 11.000000 -n 1 -e 9999.824854
N -t 11.000000 -n 2 -e 9999.779910
N -t 11.000000 -n 3 -e 9999.824854
N -t 11.000000 -n 4 -e 9999.824854
N -t 11.000000 -n 5 -e 9999.824854
N -t 11.000000 -n 6 -e 9999.824854
N -t 11.000000 -n 7 -e 9999.824854
N -t 12.000000 -n 0 -e 9999.816854
N -t 12.000000 -n 1 -e 9999.816854
N -t 12.000000 -n 2 -e 9999.771910
N -t 12.000000 -n 3 -e 9999.816854
N -t 12.000000 -n 4 -e 9999.816854
N -t 12.000000 -n 5 -e 9999.816854
N -t 12.000000 -n 6 -e 9999.816854
N -t 12.000000 -n 7 -e 9999.816854
s 12.215919226 _5_ MAC  --- 3 vectorbasedforward 1728 [0 5000000 8 0] [energy 9999.816854 ei 0.094 es 0.000 et 0.004 er 0.085] ------- [5:0 5:255 0 0] 
s 12.225529987 _7_ MAC  --- 0 auv-SYNC 64 [0 7000000 ffff0000 0] [energy 9999.816854 ei 0.094 es 0.000 et 0.004 er 0.085] ------- [0:0 0:0 0 0] 
r 12.481575148 _0_ MAC  --- 3 vectorbasedforward 1728 [0 5000000 8 0] [energy 9999.743651 ei 0.097 es 0.000 et 0.004 er 0.155] ------- [5:0 5:255 0 0] 
N -t 13.000000 -n 0 -e 9999.739504
N -t 13.000000 -n 1 -e 9999.739504
N -t 13.000000 -n 2 -e 9999.694560
N -t 13.000000 -n 3 -e 9999.739504
N -t 13.000000 -n 4 -e 9999.739504
N -t 13.000000 -n 5 -e 9999.696189
N -t 13.000000 -n 6 -e 9999.739504
N -t 13.000000 -n 7 -e 9999.737808
s 13.629256634 _3_ MAC  --- 0 auv-SYNC 64 [0 3000000 ffff0000 0] [energy 9999.739504 ei 0.101 es 0.000 et 0.004 er 0.155] ------- [0:0 0:0 0 0] 
N -t 14.000000 -n 0 -e 9999.729027
N -t 14.000000 -n 1 -e 9999.729027
N -t 14.000000 -n 2 -e 9999.684083
N -t 14.000000 -n 3 -e 9999.727331
N -t 14.000000 -n 4 -e 9999.729027
N -t 14.000000 -n 5 -e 9999.685712
N -t 14.000000 -n 6 -e 9999.729027
N -t 14.000000 -n 7 -e 9999.727331
s 14.100096896 _6_ MAC  --- 0 auv-SYNC 64 [0 6000000 ffff0000 0] [energy 9999.729027 ei 0.109 es 0.000 et 0.004 er 0.158] ------- [0:0 0:0 0 0] 
N -t 15.000000 -n 0 -e 9999.718550
N -t 15.000000 -n 1 -e 9999.718550
N -t 15.000000 -n 2 -e 9999.673606
N -t 15.000000 -n 3 -e 9999.716854
N -t 15.000000 -n 4 -e 9999.718550
N -t 15.000000 -n 5 -e 9999.675235
N -t 15.000000 -n 6 -e 9999.716854
N -t 15.000000 -n 7 -e 9999.716854
N -t 16.000000 -n 0 -e 9999.710550
N -t 16.000000 -n 1 -e 9999.710550
N -t 16.000000 -n 2 -e 9999.665606
N -t 16.000000 -n 3 -e 9999.708854
N -t 16.000000 -n 4 -e 9999.710550
N -t 16.000000 -n 5 -e 9999.667235
N -t 16.000000 -n 6 -e 9999.708854
N -t 16.000000 -n 7 -e 9999.708854
s 17.105357040 _1_ MAC  --- 0 auv-SYNC 64 [0 1000000 ffff0000 0] [energy 9999.707497 ei 0.128 es 0.000 et 0.004 er 0.161] ------- [0:0 0:0 0 0] 
s 17.416816519 _4_ MAC  --- 2 vectorbasedforward 1696 [0 4000000 8 0] [energy 9999.704529 ei 0.128 es 0.000 et 0.004 er 0.163] ------- [4:0 4:255 0 0] 
r 17.634532121 _0_ MAC  --- 2 vectorbasedforward 1696 [0 4000000 8 0] [energy 9999.634976 ei 0.131 es 0.000 et 0.004 er 0.230] ------- [4:0 4:255 0 0] 
s 19.431124995 _0_ MAC  --- 0 vectorbasedforward 1696 [0 0 8 0] [energy 9999.634976 ei 0.131 es 0.000 et 0.004 er 0.230] ------- [0:0 0:255 0 1] 
r 19.638443249 _1_ MAC  --- 0 vectorbasedforward 1696 [0 0 8 0] [energy 9999.551789 ei 0.145 es 0.000 et 0.008 er 0.295] ------- [0:0 0:255 0 1] 
s 21.565923322 _3_ MAC  --- 0 auv-SYNC 64 [0 3000000 ffff0000 0] [energy 9999.551501 ei 0.146 es 0.000 et 0.008 er 0.295] ------- [0:0 0:0 0 0] 
s 23.555169131 _1_ MAC  --- 0 auv-SYNC 64 [0 1000000 ffff0000 0] [energy 9999.533468 ei 0.161 es 0.000 et 0.008 er 0.297] ------- [0:0 0:0 0 0] 
s 25.074659551 _0_ MAC  --- 0 auv-SYNC 64 [0 0 ffff0000 0] [energy 9999.471725 ei 0.177 es 0.000 et 0.116 er 0.235] ------- [0:0 0:0 0 0] 
s 27.004867518 _4_ MAC  --- 0 auv-SYNC 64 [0 4000000 ffff0000 0] [energy 9999.457428 ei 0.189 es 0.000 et 0.116 er 0.238] ------- [0:0 0:0 0 0] 
s 29.535980172 _1_ MAC  --- 0 auv-SYNC 64 [0 1000000 ffff0000 0] [energy 9999.461609 ei 0.224 es 0.000 et 0.013 er 0.302] ------- [0:0 0:0 0 0] 
s 32.704135283 _6_ MAC  --- 0 auv-SYNC 64 [0 6000000 ffff0000 0] [energy 9999.442513 ei 0.242 es 0.000 et 0.008 er 0.307] ------- [0:0 0:0 0 0] 
s 47.917218811 _6_ MAC  --- 0 auv-SYNC 64 [0 6000000 ffff0000 0] [energy 9999.419935 ei 0.260 es 0.000 et 0.013 er 0.307] ------- [0:0 0:0 0 0] 
s 52.222083620 _7_ MAC  --- 0 auv-SYNC 64 [0 7000000 ffff0000 0] [energy 9999.401202 ei 0.278 es 0.000 et 0.008 er 0.312] ------- [0:0 0:0 0 0] 
s 59.125759970 _5_ MAC  --- 7 vectorbasedforward 1792 [0 5000000 8 0] [energy 9999.359576 ei 0.278 es 0.000 et 0.118 er 0.244] ------- [5:0 5:255 0 1] 
s 60.719955025 _2_ MAC  --- 5 vectorbasedforward 1792 [0 2000000 8 0] [energy 9999.336689 ei 0.297 es 0.000 et 0.116 er 0.250] ------- [2:0 2:255 0 1] 
r 60.941450283 _1_ MAC  --- 5 vectorbasedforward 1792 [0 2000000 8 0] [energy 9999.294117 ei 0.309 es 0.000 et 0.017 er 0.380] ------- [2:0 2:255 0 1] 
s 71.492474473 _3_ MAC  --- 0 auv-SYNC 64 [0 3000000 ffff0000 0] [energy 9999.277801 ei 0.327 es 0.000 et 0.013 er 0.383] ------- [0:0 0:0 0 0] 
s 75.223819802 _0_ MAC  --- 4 vectorbasedforward 1760 [0 0 8 0] [energy 9999.214178 ei 0.344 es 0.000 et 0.120 er 0.321] ------- [0:0 0:255 0 2] 
r 75.419095578 _2_ MAC  --- 4 vectorbasedforward 1760 [0 0 8 0] [energy 9999.098939 ei 0.344 es 0.000 et 0.234 er 0.322] ------- [0:0 0:255 0 2] 
s 76.694001546 _4_ MAC  --- 6 vectorbasedforward 1728 [0 4000000 8 0] [energy 9999.144618 ei 0.344 es 0.000 et 0.120 er 0.391] ------- [4:0 4:255 0 1] 
r 76.952186947 _1_ MAC  --- 6 vectorbasedforward 1728 [0 4000000 8 0] [energy 9999.106447 ei 0.356 es 0.000 et 0.017 er 0.521] ------- [4:0 4:255 0 1] 
s 77.947761476 _4_ MAC  --- 0 auv-SYNC 64 [0 4000000 ffff0000 0] [energy 9999.020602 ei 0.354 es 0.000 et 0.234 er 0.391] ------- [0:0 0:0 0 0] 
s 80.484188861 _1_ MAC  --- 0 auv-SYNC 64 [0 1000000 ffff0000 0] [energy 9999.076334 ei 0.383 es 0.000 et 0.017 er 0.523] ------- [0:0 0:0 0 0] 
s 98.894284248 _6_ MAC  --- 0 auv-SYNC 64 [0 6000000 ffff0000 0] [energy 9999.055647 ei 0.402 es 0.000 et 0.017 er 0.526] ------- [0:0 0:0 0 0] 
s 103.124013944 _7_ MAC  --- 0 auv-SYNC 64 [0 7000000 ffff0000 0] [energy 9999.036471 ei 0.420 es 0.000 et 0.013 er 0.531] ------- [0:0 0:0 0 0] 
s 108.998701703 _5_ MAC  --- 11 vectorbasedforward 1760 [0 5000000 8 0] [energy 9998.899584 ei 0.401 es 0.000 et 0.237 er 0.463] ------- [5:0 5:255 0 2] 
s 110.586240117 _2_ MAC  --- 9 vectorbasedforward 1760 [0 2000000 8 0] [energy 9998.927286 ei 0.438 es 0.000 et 0.234 er 0.401] ------- [2:0 2:255 0 3] 
s 122.008827256 _3_ MAC  --- 0 auv-SYNC 64 [0 3000000 ffff0000 0] [energy 9998.994991 ei 0.457 es 0.000 et 0.017 er 0.531] ------- [0:0 0:0 0 0] 
s 124.642646766 _0_ MAC  --- 8 vectorbasedforward 1792 [0 0 8 0] [energy 9998.886978 ei 0.475 es 0.000 et 0.237 er 0.402] ------- [0:0 0:255 0 3] 
s 128.495038879 _4_ MAC  --- 10 vectorbasedforward 1792 [0 4000000 8 0] [energy 9998.869037 ei 0.492 es 0.000 et 0.239 er 0.401] ------- [4:0 4:255 0 2] 
r 128.729249989 _2_ MAC  --- 10 vectorbasedforward 1792 [0 4000000 8 0] [energy 9998.683308 ei 0.492 es 0.000 et 0.351 er 0.474] ------- [4:0 4:255 0 2] 
s 130.707031168 _1_ MAC  --- 0 auv-SYNC 64 [0 1000000 ffff0000 0] [energy 9998.882766 ei 0.494 es 0.000 et 0.021 er 0.602] ------- [0:0 0:0 0 0] 
s 148.666678101 _6_ MAC  --- 0 auv-SYNC 64 [0 6000000 ffff0000 0] [energy 9998.846257 ei 0.528 es 0.000 et 0.021 er 0.604] ------- [0:0 0:0 0 0] 
s 153.821441443 _7_ MAC  --- 0 auv-SYNC 64 [0 7000000 ffff0000 0] [energy 9998.826874 ei 0.547 es 0.000 et 0.017 er 0.609] ------- [0:0 0:0 0 0] 
s 158.679348949 _5_ MAC  --- 15 vectorbasedforward 1760 [0 5000000 8 0] [energy 9998.515418 ei 0.521 es 0.000 et 0.353 er 0.611] ------- [5:0 5:255 0 3] 
s 160.025097413 _2_ MAC  --- 13 vectorbasedforward 1760 [0 2000000 8 0] [energy 9998.605250 ei 0.563 es 0.000 et 0.351 er 0.482] ------- [2:0 2:255 0 4] 
s 172.463962535 _3_ MAC  --- 0 auv-SYNC 64 [0 3000000 ffff0000 0] [energy 9998.804397 ei 0.565 es 0.000 et 0.021 er 0.609] ------- [0:0 0:0 0 0] 
s 174.090541384 _0_ MAC  --- 12 vectorbasedforward 1760 [0 0 8 0] [energy 9998.598848 ei 0.563 es 0.000 et 0.355 er 0.483] ------- [0:0 0:255 0 4] 
r 174.314656986 _4_ MAC  --- 12 vectorbasedforward 1760 [0 0 8 0] [energy 9998.586234 ei 0.577 es 0.000 et 0.357 er 0.480] ------- [0:0 0:255 0 4] 
s 175.765722775 _0_ MAC  --- 0 auv-SYNC 64 [0 0 ffff0000 0] [energy 9998.469993 ei 0.576 es 0.000 et 0.471 er 0.483] ------- [0:0 0:0 0 0] 
s 179.090566686 _4_ MAC  --- 14 vectorbasedforward 1792 [0 4000000 8 0] [energy 9998.564522 ei 0.598 es 0.000 et 0.357 er 0.480] ------- [4:0 4:255 0 3] 
s 180.900571092 _1_ MAC  --- 0 auv-SYNC 64 [0 1000000 ffff0000 0] [energy 9998.695445 ei 0.600 es 0.000 et 0.025 er 0.679] ------- [0:0 0:0 0 0] 
s 198.949721827 _6_ MAC  --- 0 auv-SYNC 64 [0 6000000 ffff0000 0] [energy 9998.661109 ei 0.632 es 0.000 et 0.025 er 0.681] ------- [0:0 0:0 0 0] 
s 203.802477559 _7_ MAC  --- 0 auv-SYNC 64 [0 7000000 ffff0000 0] [energy 9998.641518 ei 0.651 es 0.000 et 0.021 er 0.686] ------- [0:0 0:0 0 0] 
s 208.704141955 _5_ MAC  --- 19 vectorbasedforward 1792 [0 5000000 8 0] [energy 9998.139048 ei 0.635 es 0.000 et 0.469 er 0.757] ------- [5:0 5:255 0 4] 
s 209.554243034 _2_ MAC  --- 17 vectorbasedforward 1792 [0 2000000 8 0] [energy 9998.289051 ei 0.683 es 0.000 et 0.467 er 0.561] ------- [2:0 2:255 0 5] 
r 209.835501840 _5_ MAC  --- 17 vectorbasedforward 1792 [0 2000000 8 0] [energy 9997.943808 ei 0.641 es 0.000 et 0.587 er 0.828] ------- [2:0 2:255 0 5] 
s 223.440599261 _3_ MAC  --- 0 auv-SYNC 64 [0 3000000 ffff0000 0] [energy 9998.619641 ei 0.669 es 0.000 et 0.025 er 0.686] ------- [0:0 0:0 0 0] 
s 225.177257323 _0_ MAC  --- 16 vectorbasedforward 1792 [0 0 8 0] [energy 9998.356484 ei 0.675 es 0.000 et 0.475 er 0.493] ------- [0:0 0:255 0 5] 
r 225.449313245 _5_ MAC  --- 16 vectorbasedforward 1792 [0 0 8 0] [energy 9997.838300 ei 0.673 es 0.000 et 0.587 er 0.901] ------- [0:0 0:255 0 5] 
s 229.909709506 _4_ MAC  --- 18 vectorbasedforward 1760 [0 4000000 8 0] [energy 9998.280390 ei 0.683 es 0.000 et 0.475 er 0.561] ------- [4:0 4:255 0 5] 
s 231.455603848 _1_ MAC  --- 0 auv-SYNC 64 [0 1000000 ffff0000 0] [energy 9998.527707 ei 0.686 es 0.000 et 0.030 er 0.757] ------- [0:0 0:0 0 0] 
s 248.059302689 _6_ MAC  --- 0 auv-SYNC 64 [0 6000000 ffff0000 0] [energy 9998.506534 ei 0.704 es 0.000 et 0.030 er 0.760] ------- [0:0 0:0 0 0] 
s 254.608106415 _7_ MAC  --- 0 auv-SYNC 64 [0 7000000 ffff0000 0] [energy 9998.486943 ei 0.723 es 0.000 et 0.025 er 0.765] ------- [0:0 0:0 0 0] 
s 258.761735155 _2_ MAC  --- 21 vectorbasedforward 1760 [0 2000000 8 0] [energy 9998.000928 ei 0.772 es 0.000 et 0.585 er 0.642] ------- [2:0 2:255 0 6] 
s 259.112734790 _5_ MAC  --- 23 vectorbasedforward 1792 [0 5000000 8 0] [energy 9997.794232 ei 0.712 es 0.000 et 0.587 er 0.906] ------- [5:0 5:255 0 6] 
s 272.821107967 _3_ MAC  --- 0 auv-SYNC 64 [0 3000000 ffff0000 0] [energy 9998.465066 ei 0.741 es 0.000 et 0.030 er 0.765] ------- [0:0 0:0 0 0] 
s 275.901904755 _0_ MAC  --- 20 vectorbasedforward 1792 [0 0 8 0] [energy 9998.124136 ei 0.779 es 0.000 et 0.593 er 0.503] ------- [0:0 0:255 0 6] 
s 278.923752945 _4_ MAC  --- 22 vectorbasedforward 1792 [0 4000000 8 0] [energy 9998.051403 ei 0.786 es 0.000 et 0.591 er 0.571] ------- [4:0 4:255 0 6] 
s 282.352982318 _1_ MAC  --- 0 auv-SYNC 64 [0 1000000 ffff0000 0] [energy 9998.424077 ei 0.777 es 0.000 et 0.034 er 0.765] ------- [0:0 0:0 0 0] 
s 298.671233765 _6_ MAC  --- 0 auv-SYNC 64 [0 6000000 ffff0000 0] [energy 9998.402904 ei 0.796 es 0.000 et 0.034 er 0.767] ------- [0:0 0:0 0 0] 
s 304.550548494 _7_ MAC  --- 0 auv-SYNC 64 [0 7000000 ffff0000 0] [energy 9998.383313 ei 0.815 es 0.000 et 0.030 er 0.772] ------- [0:0 0:0 0 0] 
s 308.035623743 _2_ MAC  --- 25 vectorbasedforward 1760 [0 2000000 8 0] [energy 9997.696486 ei 0.879 es 0.000 et 0.701 er 0.723] ------- [2:0 2:255 0 7] 
s 309.067536036 _5_ MAC  --- 27 vectorbasedforward 1824 [0 5000000 8 0] [energy 9997.576578 ei 0.804 es 0.000 et 0.705 er 0.914] ------- [5:0 5:255 0 7] 
s 321.941948167 _3_ MAC  --- 0 auv-SYNC 64 [0 3000000 ffff0000 0] [energy 9998.361436 ei 0.832 es 0.000 et 0.034 er 0.772] ------- [0:0 0:0 0 0] 
s 326.072224619 _0_ MAC  --- 0 auv-SYNC 64 [0 0 ffff0000 0] [energy 9997.905364 ei 0.870 es 0.000 et 0.712 er 0.513] ------- [0:0 0:0 0 0] 
s 328.960287040 _4_ MAC  --- 0 auv-SYNC 64 [0 4000000 ffff0000 0] [energy 9997.832631 ei 0.876 es 0.000 et 0.710 er 0.581] ------- [0:0 0:0 0 0] 
s 333.122674156 _1_ MAC  --- 0 auv-SYNC 64 [0 1000000 ffff0000 0] [energy 9998.338853 ei 0.851 es 0.000 et 0.038 er 0.772] ------- [0:0 0:0 0 0] 
s 336.072224619 _0_ MAC  --- 24 vectorbasedforward 1760 [0 0 8 0] [energy 9997.821876 ei 0.944 es 0.000 et 0.716 er 0.518] ------- [0:0 0:255 0 7] 
s 338.960287040 _4_ MAC  --- 26 vectorbasedforward 1792 [0 4000000 8 0] [energy 9997.774343 ei 0.928 es 0.000 et 0.714 er 0.584] ------- [4:0 4:255 0 7] 
s 343.122674156 _1_ MAC  --- 0 auv-SYNC 64 [0 1000000 ffff0000 0] [energy 9998.148400 ei 0.897 es 0.000 et 0.042 er 0.913] ------- [0:0 0:0 0 0] 
s 348.054845914 _6_ MAC  --- 0 auv-SYNC 64 [0 6000000 ffff0000 0] [energy 9998.296797 ei 0.888 es 0.000 et 0.038 er 0.777] ------- [0:0 0:0 0 0] 
s 353.802138476 _7_ MAC  --- 0 auv-SYNC 64 [0 7000000 ffff0000 0] [energy 9998.277207 ei 0.907 es 0.000 et 0.034 er 0.782] ------- [0:0 0:0 0 0] 
s 357.153729087 _2_ MAC  --- 29 vectorbasedforward 1760 [0 2000000 8 0] [energy 9997.378624 ei 0.996 es 0.000 et 0.817 er 0.808] ------- [2:0 2:255 0 0] 
s 358.054845914 _6_ MAC  --- 0 auv-SYNC 64 [0 6000000 ffff0000 0] [energy 9998.226010 ei 0.952 es 0.000 et 0.042 er 0.780] ------- [0:0 0:0 0 0] 
s 358.226336271 _5_ MAC  --- 31 vectorbasedforward 1824 [0 5000000 8 0] [energy 9997.352443 ei 0.895 es 0.000 et 0.826 er 0.927] ------- [5:0 5:255 0 0] 
r 358.501592193 _0_ MAC  --- 31 vectorbasedforward 1824 [0 5000000 8 0] [energy 9997.461252 ei 1.035 es 0.000 et 0.832 er 0.671] ------- [5:0 5:255 0 0] 
s 360.613738000 _5_ MAC  --- 0 auv-SYNC 64 [0 5000000 ffff0000 0] [energy 9997.214434 ei 0.913 es 0.000 et 0.946 er 0.927] ------- [0:0 0:0 0 0] 
s 364.676686988 _5_ MAC  --- 0 auv-SYNC 64 [0 5000000 ffff0000 0] [energy 9997.210210 ei 0.913 es 0.000 et 0.950 er 0.927] ------- [0:0 0:0 0 0] 
s 371.609567993 _3_ MAC  --- 0 auv-SYNC 64 [0 3000000 ffff0000 0] [energy 9998.145453 ei 0.960 es 0.000 et 0.038 er 0.857] ------- [0:0 0:0 0 0] 
s 381.609567993 _3_ MAC  --- 0 auv-SYNC 64 [0 3000000 ffff0000 0] [energy 9998.141229 ei 0.960 es 0.000 et 0.042 er 0.857] ------- [0:0 0:0 0 0] 
s 385.361522062 _0_ MAC  --- 28 vectorbasedforward 1760 [0 0 8 0] [energy 9997.386676 ei 1.105 es 0.000 et 0.832 er 0.676] ------- [0:0 0:255 0 1] 
s 389.719709846 _4_ MAC  --- 30 vectorbasedforward 1792 [0 4000000 8 0] [energy 9997.424812 ei 1.072 es 0.000 et 0.832 er 0.671] ------- [4:0 4:255 0 0] 
s 392.929696559 _1_ MAC  --- 0 auv-SYNC 64 [0 1000000 ffff0000 0] [energy 9997.864424 ei 1.092 es 0.000 et 0.046 er 0.997] ------- [0:0 0:0 0 0] 
s 404.741378193 _7_ MAC  --- 0 auv-SYNC 64 [0 7000000 ffff0000 0] [energy 9998.082106 ei 1.015 es 0.000 et 0.038 er 0.865] ------- [0:0 0:0 0 0] 
s 407.705362264 _2_ MAC  --- 0 auv-SYNC 64 [0 2000000 ffff0000 0] [energy 9997.060411 ei 1.114 es 0.000 et 0.934 er 0.892] ------- [0:0 0:0 0 0] 
s 408.332155097 _6_ MAC  --- 0 auv-SYNC 64 [0 6000000 ffff0000 0] [energy 9998.030909 ei 1.061 es 0.000 et 0.046 er 0.862] ------- [0:0 0:0 0 0] 
s 414.741378193 _7_ MAC  --- 0 auv-SYNC 64 [0 7000000 ffff0000 0] [energy 9998.026094 ei 1.062 es 0.000 et 0.042 er 0.870] ------- [0:0 0:0 0 0] 
s 414.916577044 _5_ MAC  --- 35 vectorbasedforward 1824 [0 5000000 8 0] [energy 9997.071651 ei 1.037 es 0.000 et 0.955 er 0.937] ------- [5:0 5:255 0 1] 
r 415.227214671 _1_ MAC  --- 35 vectorbasedforward 1824 [0 5000000 8 0] [energy 9997.723123 ei 1.149 es 0.000 et 0.051 er 1.077] ------- [5:0 5:255 0 1] 
s 417.705362264 _2_ MAC  --- 33 vectorbasedforward 1760 [0 2000000 8 0] [energy 9996.939351 ei 1.153 es 0.000 et 0.938 er 0.969] ------- [2:0 2:255 0 1] 
s 430.986520231 _3_ MAC  --- 0 auv-SYNC 64 [0 3000000 ffff0000 0] [energy 9997.884585 ei 1.130 es 0.000 et 0.046 er 0.939] ------- [0:0 0:0 0 0] 
s 436.280578733 _0_ MAC  --- 32 vectorbasedforward 1760 [0 0 8 0] [energy 9997.060113 ei 1.231 es 0.000 et 0.948 er 0.761] ------- [0:0 0:255 0 2] 
s 439.566434214 _4_ MAC  --- 34 vectorbasedforward 1760 [0 4000000 8 0] [energy 9997.114569 ei 1.179 es 0.000 et 0.950 er 0.756] ------- [4:0 4:255 0 1] 
s 442.586843734 _1_ MAC  --- 0 auv-SYNC 64 [0 1000000 ffff0000 0] [energy 9997.687728 ei 1.182 es 0.000 et 0.051 er 1.079] ------- [0:0 0:0 0 0] 
s 458.699254622 _6_ MAC  --- 0 auv-SYNC 64 [0 6000000 ffff0000 0] [energy 9997.875095 ei 1.133 es 0.000 et 0.051 er 0.942] ------- [0:0 0:0 0 0] 
s 463.898045455 _7_ MAC  --- 0 auv-SYNC 64 [0 7000000 ffff0000 0] [energy 9997.783763 ei 1.151 es 0.000 et 0.046 er 1.019] ------- [0:0 0:0 0 0] 
s 465.338092648 _5_ MAC  --- 39 vectorbasedforward 1824 [0 5000000 8 0] [energy 9996.871675 ei 1.109 es 0.000 et 1.075 er 0.944] ------- [5:0 5:255 0 2] 
r 465.622551455 _2_ MAC  --- 39 vectorbasedforward 1824 [0 5000000 8 0] [energy 9996.656527 ei 1.238 es 0.000 et 1.054 er 1.052] ------- [5:0 5:255 0 2] 
s 468.578506004 _2_ MAC  --- 37 vectorbasedforward 1760 [0 2000000 8 0] [energy 9996.638921 ei 1.256 es 0.000 et 1.054 er 1.052] ------- [2:0 2:255 0 3] 
s 481.641681976 _3_ MAC  --- 0 auv-SYNC 64 [0 3000000 ffff0000 0] [energy 9997.715542 ei 1.215 es 0.000 et 0.051 er 1.019] ------- [0:0 0:0 0 0] 
s 485.465420673 _0_ MAC  --- 36 vectorbasedforward 1760 [0 0 8 0] [energy 9996.759651 ei 1.333 es 0.000 et 1.064 er 0.843] ------- [0:0 0:255 0 3] 
s 490.111916708 _4_ MAC  --- 38 vectorbasedforward 1760 [0 4000000 8 0] [energy 9996.814215 ei 1.281 es 0.000 et 1.067 er 0.838] ------- [4:0 4:255 0 2] 
s 492.272162283 _1_ MAC  --- 0 auv-SYNC 64 [0 1000000 ffff0000 0] [energy 9997.518704 ei 1.267 es 0.000 et 0.055 er 1.159] ------- [0:0 0:0 0 0] 
s 508.425669993 _6_ MAC  --- 0 auv-SYNC 64 [0 6000000 ffff0000 0] [energy 9997.706215 ei 1.218 es 0.000 et 0.055 er 1.021] ------- [0:0 0:0 0 0] 
s 513.411625381 _7_ MAC  --- 0 auv-SYNC 64 [0 7000000 ffff0000 0] [energy 9997.597063 ei 1.254 es 0.000 et 0.051 er 1.098] ------- [0:0 0:0 0 0] 
s 515.065613961 _5_ MAC  --- 43 vectorbasedforward 1824 [0 5000000 8 0] [energy 9996.671698 ei 1.181 es 0.000 et 1.195 er 0.952] ------- [5:0 5:255 0 3] 
r 515.337704788 _3_ MAC  --- 43 vectorbasedforward 1824 [0 5000000 8 0] [energy 9997.562393 ei 1.284 es 0.000 et 0.055 er 1.098] ------- [5:0 5:255 0 3] 
s 517.598598715 _2_ MAC  --- 41 vectorbasedforward 1760 [0 2000000 8 0] [energy 9996.336780 ei 1.359 es 0.000 et 1.170 er 1.134] ------- [2:0 2:255 0 4] 
s 532.250210470 _3_ MAC  --- 0 auv-SYNC 64 [0 3000000 ffff0000 0] [energy 9997.544788 ei 1.302 es 0.000 et 0.055 er 1.098] ------- [0:0 0:0 0 0] 
s 535.503052292 _0_ MAC  --- 40 vectorbasedforward 1760 [0 0 8 0] [energy 9996.457476 ei 1.437 es 0.000 et 1.181 er 0.925] ------- [0:0 0:255 0 4] 
s 540.174519992 _4_ MAC  --- 42 vectorbasedforward 1760 [0 4000000 8 0] [energy 9996.513339 ei 1.384 es 0.000 et 1.183 er 0.920] ------- [4:0 4:255 0 3] 
s 543.205782823 _1_ MAC  --- 0 auv-SYNC 64 [0 1000000 ffff0000 0] [energy 9997.347967 ei 1.354 es 0.000 et 0.059 er 1.239] ------- [0:0 0:0 0 0] 
s 557.668304187 _6_ MAC  --- 0 auv-SYNC 64 [0 6000000 ffff0000 0] [energy 9997.535622 ei 1.304 es 0.000 et 0.059 er 1.101] ------- [0:0 0:0 0 0] 
s 564.284179731 _7_ MAC  --- 0 auv-SYNC 64 [0 7000000 ffff0000 0] [energy 9997.427057 ei 1.340 es 0.000 et 0.055 er 1.178] ------- [0:0 0:0 0 0] 
s 564.375573303 _5_ MAC  --- 47 vectorbasedforward 1824 [0 5000000 8 0] [energy 9996.471722 ei 1.253 es 0.000 et 1.316 er 0.959] ------- [5:0 5:255 0 4] 
r 564.605156163 _4_ MAC  --- 47 vectorbasedforward 1824 [0 5000000 8 0] [energy 9996.262262 ei 1.439 es 0.000 et 1.299 er 1.000] ------- [5:0 5:255 0 4] 
s 567.270179856 _2_ MAC  --- 45 vectorbasedforward 1760 [0 2000000 8 0] [energy 9996.047140 ei 1.451 es 0.000 et 1.286 er 1.216] ------- [2:0 2:255 0 5] 
s 583.103307902 _3_ MAC  --- 0 auv-SYNC 64 [0 3000000 ffff0000 0] [energy 9997.386534 ei 1.376 es 0.000 et 0.059 er 1.178] ------- [0:0 0:0 0 0] 
s 586.291662329 _0_ MAC  --- 44 vectorbasedforward 1760 [0 0 8 0] [energy 9996.167802 ei 1.528 es 0.000 et 1.297 er 1.007] ------- [0:0 0:255 0 5] 
s 590.322902286 _4_ MAC  --- 46 vectorbasedforward 1760 [0 4000000 8 0] [energy 9996.223774 ei 1.475 es 0.000 et 1.299 er 1.002] ------- [4:0 4:255 0 5] 
s 592.760421467 _1_ MAC  --- 0 auv-SYNC 64 [0 1000000 ffff0000 0] [energy 9997.189732 ei 1.429 es 0.000 et 0.063 er 1.318] ------- [0:0 0:0 0 0] 
s 608.006900302 _6_ MAC  --- 0 auv-SYNC 64 [0 6000000 ffff0000 0] [energy 9997.377531 ei 1.379 es 0.000 et 0.063 er 1.181] ------- [0:0 0:0 0 0] 
s 613.593241611 _7_ MAC  --- 0 auv-SYNC 64 [0 7000000 ffff0000 0] [energy 9997.269552 ei 1.414 es 0.000 et 0.059 er 1.258] ------- [0:0 0:0 0 0] 
s 615.029611053 _5_ MAC  --- 51 vectorbasedforward 1824 [0 5000000 8 0] [energy 9996.271745 ei 1.325 es 0.000 et 1.436 er 0.967] ------- [5:0 5:255 0 6] 
r 615.292288350 _6_ MAC  --- 51 vectorbasedforward 1824 [0 5000000 8 0] [energy 9997.268049 ei 1.409 es 0.000 et 0.068 er 1.255] ------- [5:0 5:255 0 6] 
s 618.035546603 _2_ MAC  --- 49 vectorbasedforward 1760 [0 2000000 8 0] [energy 9995.746740 ei 1.553 es 0.000 et 1.402 er 1.298] ------- [2:0 2:255 0 6] 
s 633.248537950 _3_ MAC  --- 0 auv-SYNC 64 [0 3000000 ffff0000 0] [energy 9997.217521 ei 1.461 es 0.000 et 0.063 er 1.258] ------- [0:0 0:0 0 0] 
s 636.182526248 _0_ MAC  --- 48 vectorbasedforward 1760 [0 0 8 0] [energy 9995.867369 ei 1.630 es 0.000 et 1.413 er 1.090] ------- [0:0 0:255 0 6] 
s 639.715808064 _4_ MAC  --- 50 vectorbasedforward 1760 [0 4000000 8 0] [energy 9995.923450 ei 1.577 es 0.000 et 1.415 er 1.085] ------- [4:0 4:255 0 6] 
s 641.822008274 _1_ MAC  --- 0 auv-SYNC 64 [0 1000000 ffff0000 0] [energy 9997.020737 ei 1.514 es 0.000 et 0.068 er 1.398] ------- [0:0 0:0 0 0] 
s 657.549200219 _6_ MAC  --- 0 auv-SYNC 64 [0 6000000 ffff0000 0] [energy 9997.208679 ei 1.464 es 0.000 et 0.068 er 1.260] ------- [0:0 0:0 0 0] 
s 664.105750597 _7_ MAC  --- 0 auv-SYNC 64 [0 7000000 ffff0000 0] [energy 9997.101286 ei 1.498 es 0.000 et 0.063 er 1.337] ------- [0:0 0:0 0 0] 
s 664.267845530 _5_ MAC  --- 55 vectorbasedforward 1824 [0 5000000 8 0] [energy 9996.071769 ei 1.397 es 0.000 et 1.557 er 0.975] ------- [5:0 5:255 0 7] 
r 664.487957891 _7_ MAC  --- 55 vectorbasedforward 1824 [0 5000000 8 0] [energy 9997.023467 ei 1.500 es 0.000 et 0.068 er 1.409] ------- [5:0 5:255 0 7] 
s 668.057578755 _2_ MAC  --- 53 vectorbasedforward 1760 [0 2000000 8 0] [energy 9995.456534 ei 1.645 es 0.000 et 1.519 er 1.380] ------- [2:0 2:255 0 7] 
s 682.419295665 _3_ MAC  --- 0 auv-SYNC 64 [0 3000000 ffff0000 0] [energy 9997.058702 ei 1.536 es 0.000 et 0.068 er 1.337] ------- [0:0 0:0 0 0] 
s 686.841519568 _0_ MAC  --- 52 vectorbasedforward 1760 [0 0 8 0] [energy 9995.577130 ei 1.722 es 0.000 et 1.529 er 1.172] ------- [0:0 0:255 0 7] 
s 690.244919393 _4_ MAC  --- 54 vectorbasedforward 1760 [0 4000000 8 0] [energy 9995.634942 ei 1.667 es 0.000 et 1.531 er 1.167] ------- [4:0 4:255 0 7] 
s 691.666444460 _1_ MAC  --- 0 auv-SYNC 64 [0 1000000 ffff0000 0] [energy 9996.861935 ei 1.589 es 0.000 et 0.072 er 1.478] ------- [0:0 0:0 0 0] 
s 707.084698707 _6_ MAC  --- 0 auv-SYNC 64 [0 6000000 ffff0000 0] [energy 9997.050022 ei 1.538 es 0.000 et 0.072 er 1.340] ------- [0:0 0:0 0 0] 
s 713.363906301 _5_ MAC  --- 59 vectorbasedforward 1824 [0 5000000 8 0] [energy 9995.871792 ei 1.469 es 0.000 et 1.677 er 0.982] ------- [5:0 5:255 0 0] 
s 713.890341052 _7_ MAC  --- 0 auv-SYNC 64 [0 7000000 ffff0000 0] [energy 9996.943215 ei 1.572 es 0.000 et 0.068 er 1.417] ------- [0:0 0:0 0 0] 
s 718.184832251 _2_ MAC  --- 57 vectorbasedforward 1792 [0 2000000 8 0] [energy 9995.237271 ei 1.738 es 0.000 et 1.635 er 1.390] ------- [2:0 2:255 0 0] 
s 732.327736230 _3_ MAC  --- 0 auv-SYNC 64 [0 3000000 ffff0000 0] [energy 9996.970975 ei 1.612 es 0.000 et 0.072 er 1.345] ------- [0:0 0:0 0 0] 
s 736.931397535 _0_ MAC  --- 56 vectorbasedforward 1792 [0 0 8 0] [energy 9995.357900 ei 1.815 es 0.000 et 1.645 er 1.182] ------- [0:0 0:255 0 1] 
s 740.930516254 _1_ MAC  --- 0 auv-SYNC 64 [0 1000000 ffff0000 0] [energy 9996.774190 ei 1.665 es 0.000 et 0.076 er 1.485] ------- [0:0 0:0 0 0] 
s 741.207252118 _4_ MAC  --- 58 vectorbasedforward 1792 [0 4000000 8 0] [energy 9995.419425 ei 1.754 es 0.000 et 1.647 er 1.179] ------- [4:0 4:255 0 0] 
r 741.434567719 _0_ MAC  --- 58 vectorbasedforward 1792 [0 4000000 8 0] [energy 9995.146350 ei 1.835 es 0.000 et 1.764 er 1.255] ------- [4:0 4:255 0 0] 
s 746.751331342 _4_ MAC  --- 0 auv-SYNC 64 [0 4000000 ffff0000 0] [energy 9995.282702 ei 1.772 es 0.000 et 1.766 er 1.179] ------- [0:0 0:0 0 0] 
s 751.864630831 _4_ MAC  --- 62 vectorbasedforward 1792 [0 4000000 8 0] [energy 9995.278478 ei 1.772 es 0.000 et 1.770 er 1.179] ------- [4:0 4:255 0 1] 
s 758.005382946 _6_ MAC  --- 0 auv-SYNC 64 [0 6000000 ffff0000 0] [energy 9996.874378 ei 1.631 es 0.000 et 0.076 er 1.418] ------- [0:0 0:0 0 0] 
s 764.205250680 _5_ MAC  --- 63 vectorbasedforward 1792 [0 5000000 8 0] [energy 9995.581583 ei 1.558 es 0.000 et 1.797 er 1.063] ------- [5:0 5:255 0 1] 
s 764.816249760 _7_ MAC  --- 0 auv-SYNC 64 [0 7000000 ffff0000 0] [energy 9996.766985 ei 1.666 es 0.000 et 0.072 er 1.495] ------- [0:0 0:0 0 0] 
s 768.715367773 _2_ MAC  --- 61 vectorbasedforward 1792 [0 2000000 8 0] [energy 9994.930743 ei 1.845 es 0.000 et 1.753 er 1.471] ------- [2:0 2:255 0 1] 
s 782.390791535 _3_ MAC  --- 0 auv-SYNC 64 [0 3000000 ffff0000 0] [energy 9996.797995 ei 1.703 es 0.000 et 0.076 er 1.423] ------- [0:0 0:0 0 0] 