SillyRrouting
M 0.0 nn 8 x 100 y 100 z 0
M 0.0 prop Propagation/UnderwaterPropagation ant Antenna/OmniAntenna
N -t 1.000000 -n 0 -e 9999.992000
N -t 1.000000 -n 1 -e 9999.992000
N -t 1.000000 -n 2 -e 9999.992000
N -t 1.000000 -n 3 -e 9999.992000
N -t 1.000000 -n 4 -e 9999.992000
N -t 1.000000 -n 5 -e 9999.992000
N -t 1.000000 -n 6 -e 9999.992000
N -t 1.000000 -n 7 -e 9999.992000
s 1.270442631 _7_ MAC  --- 0 auv-SYNC 64 [0 7000000 ffff0000 0] [energy 9999.992000 ei 0.008 es 0.000 et 0.000 er 0.000] ------- [0:0 0:0 0 0] 
s 1.480533887 _4_ MAC  --- 0 auv-SYNC 64 [0 4000000 ffff0000 0] [energy 9999.987082 ei 0.010 es 0.000 et 0.000 er 0.003] ------- [0:0 0:0 0 0] 
N -t 2.000000 -n 0 -e 9999.979046
N -t 2.000000 -n 1 -e 9999.979046
N -t 2.000000 -n 2 -e 9999.979046
N -t 2.000000 -n 3 -e 9999.979046
N -t 2.000000 -n 4 -e 9999.977350
N -t 2.000000 -n 5 -e 9999.979046
N -t 2.000000 -n 6 -e 9999.979046
N -t 2.000000 -n 7 -e 9999.977350
s 2.212340491 _5_ MAC  --- 0 auv-SYNC 64 [0 5000000 ffff0000 0] [energy 9999.979046 ei 0.016 es 0.000 et 0.000 er 0.005] ------- [0:0 0:0 0 0] 
s 2.857230760 _0_ MAC  --- 0 auv-SYNC 64 [0 0 ffff0000 0] [energy 9999.974077 ei 0.018 es 0.000 et 0.000 er 0.008] ------- [0:0 0:0 0 0] 
N -t 3.000000 -n 0 -e 9999.964397
N -t 3.000000 -n 1 -e 9999.966093
N -t 3.000000 -n 2 -e 9999.966093
N -t 3.000000 -n 3 -e 9999.966093
N -t 3.000000 -n 4 -e 9999.964397
N -t 3.000000 -n 5 -e 9999.964397
N -t 3.000000 -n 6 -e 9999.966093
N -t 3.000000 -n 7 -e 9999.964397
s 3.406486699 _3_ MAC  --- 0 auv-SYNC 64 [0 3000000 ffff0000 0] [energy 9999.966093 ei 0.024 es 0.000 et 0.000 er 0.010] ------- [0:0 0:0 0 0] 
N -t 4.000000 -n 0 -e 9999.953920
N -t 4.000000 -n 1 -e 9999.955616
N -t 4.000000 -n 2 -e 9999.955616
N -t 4.000000 -n 3 -e 9999.953920
N -t 4.000000 -n 4 -e 9999.953920
N -t 4.000000 -n 5 -e 9999.953920
N -t 4.000000 -n 6 -e 9999.955616
N -t 4.000000 -n 7 -e 9999.953920
N -t 5.000000 -n 0 -e 9999.945920
N -t 5.000000 -n 1 -e 9999.947616
N -t 5.000000 -n 2 -e 9999.947616
N -t 5.000000 -n 3 -e 9999.945920
N -t 5.000000 -n 4 -e 9999.945920
N -t 5.000000 -n 5 -e 9999.945920
N -t 5.000000 -n 6 -e 9999.947616
N -t 5.000000 -n 7 -e 9999.945920
s 5.841741586 _6_ MAC  --- 0 auv-SYNC 64 [0 6000000 ffff0000 0] [energy 9999.947616 ei 0.040 es 0.000 et 0.000 er 0.013] ------- [0:0 0:0 0 0] 
N -t 6.000000 -n 0 -e 9999.935443
N -t 6.000000 -n 1 -e 9999.937139
N -t 6.000000 -n 2 -e 9999.937139
N -t 6.000000 -n 3 -e 9999.935443
N -t 6.000000 -n 4 -e 9999.935443
N -t 6.000000 -n 5 -e 9999.935443
N -t 6.000000 -n 6 -e 9999.935443
N -t 6.000000 -n 7 -e 9999.935443
N -t 7.000000 -n 0 -e 9999.927443
N -t 7.000000 -n 1 -e 9999.929139
N -t 7.000000 -n 2 -e 9999.929139
N -t 7.000000 -n 3 -e 9999.927443
N -t 7.000000 -n 4 -e 9999.927443
N -t 7.000000 -n 5 -e 9999.927443
N -t 7.000000 -n 6 -e 9999.927443
N -t 7.000000 -n 7 -e 9999.927443
s 7.048083731 _1_ MAC  --- 0 auv-SYNC 64 [0 1000000 ffff0000 0] [energy 9999.929139 ei 0.056 es 0.000 et 0.000 er 0.015] ------- [0:0 0:0 0 0] 
N -t 8.000000 -n 0 -e 9999.916966
N -t 8.000000 -n 1 -e 9999.916966
N -t 8.000000 -n 2 -e 9999.918662
N -t 8.000000 -n 3 -e 9999.916966
N -t 8.000000 -n 4 -e 9999.916966
N -t 8.000000 -n 5 -e 9999.916966
N -t 8.000000 -n 6 -e 9999.916966
N -t 8.000000 -n 7 -e 9999.916966
N -t 9.000000 -n 0 -e 9999.908966
N -t 9.000000 -n 1 -e 9999.908966
N -t 9.000000 -n 2 -e 9999.910662
N -t 9.000000 -n 3 -e 9999.908966
N -t 9.000000 -n 4 -e 9999.908966
N -t 9.000000 -n 5 -e 9999.908966
N -t 9.000000 -n 6 -e 9999.908966
N -t 9.000000 -n 7 -e 9999.908966
s 9.705843147 _2_ MAC  --- 0 auv-SYNC 64 [0 2000000 ffff0000 0] [energy 9999.910662 ei 0.072 es 0.000 et 0.000 er 0.018] ------- [0:0 0:0 0 0] 
N -t 10.000000 -n 0 -e 9999.898490
N -t 10.000000 -n 1 -e 9999.898490
N -t 10.000000 -n 2 -e 9999.898490
N -t 10.000000 -n 3 -e 9999.898490
N -t 10.000000 -n 4 -e 9999.898490
N -t 10.000000 -n 5 -e 9999.898490
N -t 10.000000 -n 6 -e 9999.898490
N -t 10.000000 -n 7 -e 9999.898490
N -t 11.000000 -n 0 -e 9999.890490
N -t 11.000000 -n 1 -e 9999.890490
N -t 11.000000 -n 2 -e 9999.890490
N -t 11.000000 -n 3 -e 9999.890490
N -t 11.000000 -n 4 -e 9999.890490
N -t 11.000000 -n 5 -e 9999.890490
N -t 11.000000 -n 6 -e 9999.890490
N -t 11.000000 -n 7 -e 9999.890490
s 11.270442631 _7_ MAC  --- 0 auv-SYNC 64 [0 7000000 ffff0000 0] [energy 9999.890490 ei 0.088 es 0.000 et 0.004 er 0.018] ------- [0:0 0:0 0 0] 
s 11.480533887 _4_ MAC  --- 0 auv-SYNC 64 [0 4000000 ffff0000 0] [energy 9999.885571 ei 0.090 es 0.000 et 0.004 er 0.020] ------- [0:0 0:0 0 0] 
N -t 12.000000 -n 0 -e 9999.877536
N -t 12.000000 -n 1 -e 9999.877536
N -t 12.000000 -n 2 -e 9999.877536
N -t 12.000000 -n 3 -e 9999.877536
N -t 12.000000 -n 4 -e 9999.875840
N -t 12.000000 -n 5 -e 9999.877536
N -t 12.000000 -n 6 -e 9999.877536
N -t 12.000000 -n 7 -e 9999.875840
s 12.212340491 _5_ MAC  --- 0 auv-SYNC 64 [0 5000000 ffff0000 0] [energy 9999.877536 ei 0.095 es 0.000 et 0.004 er 0.023] ------- [0:0 0:0 0 0] 
s 12.857230760 _0_ MAC  --- 0 auv-SYNC 64 [0 0 ffff0000 0] [energy 9999.872566 ei 0.098 es 0.000 et 0.004 er 0.025] ------- [0:0 0:0 0 0] 
N -t 13.000000 -n 0 -e 9999.862886
N -t 13.000000 -n 1 -e 9999.864582
N -t 13.000000 -n 2 -e 9999.864582
N -t 13.000000 -n 3 -e 9999.864582
N -t 13.000000 -n 4 -e 9999.862886
N -t 13.000000 -n 5 -e 9999.862886
N -t 13.000000 -n 6 -e 9999.864582
N -t 13.000000 -n 7 -e 9999.862886
s 13.406486699 _3_ MAC  --- 0 auv-SYNC 64 [0 3000000 ffff0000 0] [energy 9999.864582 ei 0.103 es 0.000 et 0.004 er 0.028] ------- [0:0 0:0 0 0] 
N -t 14.000000 -n 0 -e 9999.852410
N -t 14.000000 -n 1 -e 9999.854106
N -t 14.000000 -n 2 -e 9999.854106
N -t 14.000000 -n 3 -e 9999.852410
N -t 14.000000 -n 4 -e 9999.852410
N -t 14.000000 -n 5 -e 9999.852410
N -t 14.000000 -n 6 -e 9999.854106
N -t 14.000000 -n 7 -e 9999.852410
N -t 15.000000 -n 0 -e 9999.844410
N -t 15.000000 -n 1 -e 9999.847405
N -t 15.000000 -n 2 -e 9999.847033
N -t 15.000000 -n 3 -e 9999.844410
N -t 15.000000 -n 4 -e 9999.845318
N -t 15.000000 -n 5 -e 9999.845411
N -t 15.000000 -n 7 -e 9999.845573
s 15.841741586 _6_ MAC  --- 0 auv-SYNC 64 [0 6000000 ffff0000 0] [energy 9999.847853 ei 0.118 es 0.000 et 0.004 er 0.030] ------- [0:0 0:0 0 0] 
N -t 16.000000 -n 0 -e 9999.833933
N -t 16.000000 -n 1 -e 9999.836928
N -t 16.000000 -n 2 -e 9999.836556
N -t 16.000000 -n 3 -e 9999.833933
N -t 16.000000 -n 4 -e 9999.834841
N -t 16.000000 -n 5 -e 9999.834934
N -t 16.000000 -n 7 -e 9999.835096
N -t 17.000000 -n 0 -e 9999.825933
N -t 17.000000 -n 1 -e 9999.828928
N -t 17.000000 -n 2 -e 9999.828556
N -t 17.000000 -n 3 -e 9999.825933
N -t 17.000000 -n 4 -e 9999.826841
N -t 17.000000 -n 5 -e 9999.826934
N -t 17.000000 -n 7 -e 9999.827096
s 17.048083731 _1_ MAC  --- 0 auv-SYNC 64 [0 1000000 ffff0000 0] [energy 9999.828928 ei 0.134 es 0.000 et 0.004 er 0.033] ------- [0:0 0:0 0 0] 
N -t 18.000000 -n 0 -e 9999.815456
N -t 18.000000 -n 1 -e 9999.816756
N -t 18.000000 -n 2 -e 9999.818080
N -t 18.000000 -n 3 -e 9999.815456
N -t 18.000000 -n 4 -e 9999.816364
N -t 18.000000 -n 5 -e 9999.816457
N -t 18.000000 -n 7 -e 9999.816619
N -t 19.000000 -n 0 -e 9999.810165
N -t 19.000000 -n 1 -e 9999.808756
N -t 19.000000 -n 3 -e 9999.810357
N -t 19.000000 -n 4 -e 9999.810978
N -t 19.000000 -n 5 -e 9999.811105
N -t 19.000000 -n 7 -e 9999.811323
s 19.705843147 _2_ MAC  --- 0 vectorbasedforward 1696 [0 2000000 8 0] [energy 9999.814900 ei 0.145 es 0.000 et 0.004 er 0.035] ------- [2:0 2:255 0 3] 
r 19.927664896 _3_ MAC  --- 0 vectorbasedforward 1696 [0 2000000 8 0] [energy 9999.737301 ei 0.154 es 0.000 et 0.008 er 0.100] ------- [2:0 2:255 0 3] 
N -t 20.000000 -n 0 -e 9999.736530
N -t 20.000000 -n 1 -e 9999.735120
N -t 20.000000 -n 3 -e 9999.736722
N -t 20.000000 -n 4 -e 9999.737343
N -t 20.000000 -n 5 -e 9999.737470
N -t 20.000000 -n 7 -e 9999.737688
N -t 21.000000 -n 0 -e 9999.728530
N -t 21.000000 -n 1 -e 9999.727120
N -t 21.000000 -n 3 -e 9999.728722
N -t 21.000000 -n 4 -e 9999.729343
N -t 21.000000 -n 5 -e 9999.729470
N -t 21.000000 -n 7 -e 9999.729688
N -t 22.000000 -n 0 -e 9999.728108
N -t 22.000000 -n 1 -e 9999.722273
N -t 22.000000 -n 3 -e 9999.723760
N -t 22.000000 -n 4 -e 9999.724477
N -t 22.000000 -n 5 -e 9999.724585
N -t 22.000000 -n 7 -e 9999.724770
s 22.405176609 _0_ MAC  --- 0 auv-SYNC 64 [0 0 ffff0000 0] [energy 9999.728108 ei 0.164 es 0.000 et 0.008 er 0.100] ------- [0:0 0:0 0 0] 
s 22.939701195 _3_ MAC  --- 0 auv-SYNC 64 [0 3000000 ffff0000 0] [energy 9999.717724 ei 0.171 es 0.000 et 0.008 er 0.102] ------- [0:0 0:0 0 0] 
N -t 23.000000 -n 0 -e 9999.713458
N -t 23.000000 -n 1 -e 9999.709320
N -t 23.000000 -n 3 -e 9999.709111
N -t 23.000000 -n 4 -e 9999.711499
N -t 23.000000 -n 5 -e 9999.714108
N -t 23.000000 -n 7 -e 9999.711817
s 23.204100900 _6_ MAC  --- 0 auv-SYNC 64 [0 6000000 ffff0000 0] [energy 9999.719010 ei 0.168 es 0.000 et 0.008 er 0.105] ------- [0:0 0:0 0 0] 
s 23.515649326 _1_ MAC  --- 0 auv-SYNC 64 [0 1000000 ffff0000 0] [energy 9999.704562 ei 0.180 es 0.000 et 0.008 er 0.107] ------- [0:0 0:0 0 0] 
N -t 24.000000 -n 0 -e 9999.700505
N -t 24.000000 -n 1 -e 9999.694670
N -t 24.000000 -n 3 -e 9999.696157
N -t 24.000000 -n 4 -e 9999.698570
N -t 24.000000 -n 5 -e 9999.698678
N -t 24.000000 -n 7 -e 9999.698863
N -t 25.000000 -n 1 -e 9999.686670
N -t 25.000000 -n 3 -e 9999.688157
N -t 26.000000 -n 1 -e 9999.678670
N -t 26.000000 -n 3 -e 9999.682802
s 26.474960962 _5_ MAC  --- 0 auv-SYNC 64 [0 5000000 ffff0000 0] [energy 9999.691070 ei 0.191 es 0.000 et 0.008 er 0.110] ------- [0:0 0:0 0 0] 
s 26.581342237 _6_ MAC  --- 0 auv-SYNC 64 [0 6000000 ffff0000 0] [energy 9999.681958 ei 0.195 es 0.000 et 0.013 er 0.110] ------- [0:0 0:0 0 0] 
N -t 27.000000 -n 1 -e 9999.665716
N -t 27.000000 -n 3 -e 9999.669849
s 30.235845142 _2_ MAC  --- 0 auv-SYNC 64 [0 2000000 ffff0000 0] [energy 9999.629478 ei 0.204 es 0.000 et 0.116 er 0.051] ------- [0:0 0:0 0 0] 
s 32.209033191 _6_ MAC  --- 0 auv-SYNC 64 [0 6000000 ffff0000 0] [energy 9999.638341 ei 0.232 es 0.000 et 0.017 er 0.112] ------- [0:0 0:0 0 0] 
s 36.799241227 _4_ MAC  --- 0 auv-SYNC 64 [0 4000000 ffff0000 0] [energy 9999.629499 ei 0.242 es 0.000 et 0.008 er 0.120] ------- [0:0 0:0 0 0] 
s 60.001000000 _7_ MAC  --- 0 auv-SYNC 64 [0 7000000 ffff0000 0] [energy 9999.608493 ei 0.260 es 0.000 et 0.008 er 0.123] ------- [0:0 0:0 0 0] 
s 72.405176609 _0_ MAC  --- 0 auv-SYNC 64 [0 0 ffff0000 0] [energy 9999.590056 ei 0.275 es 0.000 et 0.013 er 0.123] ------- [0:0 0:0 0 0] 
s 72.939701195 _3_ MAC  --- 0 auv-SYNC 64 [0 3000000 ffff0000 0] [energy 9999.571992 ei 0.290 es 0.000 et 0.013 er 0.125] ------- [0:0 0:0 0 0] 
s 73.515649326 _1_ MAC  --- 0 auv-SYNC 64 [0 1000000 ffff0000 0] [energy 9999.560850 ei 0.299 es 0.000 et 0.013 er 0.128] ------- [0:0 0:0 0 0] 
s 76.474960962 _5_ MAC  --- 0 auv-SYNC 64 [0 5000000 ffff0000 0] [energy 9999.545129 ei 0.312 es 0.000 et 0.013 er 0.130] ------- [0:0 0:0 0 0] 
s 80.235845142 _2_ MAC  --- 1 vectorbasedforward 1696 [0 2000000 8 0] [energy 9999.498768 ei 0.313 es 0.000 et 0.120 er 0.068] ------- [2:0 2:255 0 3] 
r 80.457666892 _3_ MAC  --- 1 vectorbasedforward 1696 [0 2000000 8 0] [energy 9999.447155 ei 0.339 es 0.000 et 0.017 er 0.197] ------- [2:0 2:255 0 3] 
s 82.209033191 _6_ MAC  --- 0 auv-SYNC 64 [0 6000000 ffff0000 0] [energy 9999.434084 ei 0.350 es 0.000 et 0.021 er 0.195] ------- [0:0 0:0 0 0] 
s 86.799241227 _4_ MAC  --- 0 auv-SYNC 64 [0 4000000 ffff0000 0] [energy 9999.427988 ei 0.357 es 0.000 et 0.013 er 0.202] ------- [0:0 0:0 0 0] 
s 110.001000000 _7_ MAC  --- 0 auv-SYNC 64 [0 7000000 ffff0000 0] [energy 9999.406955 ei 0.376 es 0.000 et 0.013 er 0.205] ------- [0:0 0:0 0 0] 
s 122.405176609 _0_ MAC  --- 0 auv-SYNC 64 [0 0 ffff0000 0] [energy 9999.392763 ei 0.386 es 0.000 et 0.017 er 0.205] ------- [0:0 0:0 0 0] 
s 122.939701195 _3_ MAC  --- 0 auv-SYNC 64 [0 3000000 ffff0000 0] [energy 9999.367426 ei 0.408 es 0.000 et 0.017 er 0.207] ------- [0:0 0:0 0 0] 
s 123.515649326 _1_ MAC  --- 0 auv-SYNC 64 [0 1000000 ffff0000 0] [energy 9999.353234 ei 0.420 es 0.000 et 0.017 er 0.210] ------- [0:0 0:0 0 0] 
s 126.474960962 _5_ MAC  --- 0 auv-SYNC 64 [0 5000000 ffff0000 0] [energy 9999.343655 ei 0.427 es 0.000 et 0.017 er 0.212] ------- [0:0 0:0 0 0] 
s 130.235845142 _2_ MAC  --- 2 vectorbasedforward 1696 [0 2000000 8 0] [energy 9999.261651 ei 0.420 es 0.000 et 0.232 er 0.086] ------- [2:0 2:255 0 3] 
r 130.457666892 _3_ MAC  --- 2 vectorbasedforward 1696 [0 2000000 8 0] [energy 9999.243896 ei 0.456 es 0.000 et 0.021 er 0.279] ------- [2:0 2:255 0 3] 
s 132.209033191 _6_ MAC  --- 0 auv-SYNC 64 [0 6000000 ffff0000 0] [energy 9999.229828 ei 0.468 es 0.000 et 0.025 er 0.277] ------- [0:0 0:0 0 0] 
s 136.799241227 _4_ MAC  --- 0 auv-SYNC 64 [0 4000000 ffff0000 0] [energy 9999.227783 ei 0.471 es 0.000 et 0.017 er 0.284] ------- [0:0 0:0 0 0] 
s 160.001000000 _7_ MAC  --- 0 auv-SYNC 64 [0 7000000 ffff0000 0] [energy 9999.206723 ei 0.489 es 0.000 et 0.017 er 0.287] ------- [0:0 0:0 0 0] 
s 172.405176609 _0_ MAC  --- 0 auv-SYNC 64 [0 0 ffff0000 0] [energy 9999.196774 ei 0.495 es 0.000 et 0.021 er 0.287] ------- [0:0 0:0 0 0] 
s 172.939701195 _3_ MAC  --- 0 auv-SYNC 64 [0 3000000 ffff0000 0] [energy 9999.164166 ei 0.525 es 0.000 et 0.021 er 0.289] ------- [0:0 0:0 0 0] 
s 173.515649326 _1_ MAC  --- 0 auv-SYNC 64 [0 1000000 ffff0000 0] [energy 9999.146924 ei 0.540 es 0.000 et 0.021 er 0.292] ------- [0:0 0:0 0 0] 
s 176.474960962 _5_ MAC  --- 0 auv-SYNC 64 [0 5000000 ffff0000 0] [energy 9999.143487 ei 0.541 es 0.000 et 0.021 er 0.295] ------- [0:0 0:0 0 0] 
s 180.235845142 _2_ MAC  --- 3 vectorbasedforward 1696 [0 2000000 8 0] [energy 9999.024534 ei 0.528 es 0.000 et 0.344 er 0.104] ------- [2:0 2:255 0 3] 
r 180.457666892 _3_ MAC  --- 3 vectorbasedforward 1696 [0 2000000 8 0] [energy 9999.040636 ei 0.573 es 0.000 et 0.025 er 0.362] ------- [2:0 2:255 0 3] 
s 182.209033191 _6_ MAC  --- 0 auv-SYNC 64 [0 6000000 ffff0000 0] [energy 9999.025571 ei 0.586 es 0.000 et 0.030 er 0.359] ------- [0:0 0:0 0 0] 
s 186.799241227 _4_ MAC  --- 0 auv-SYNC 64 [0 4000000 ffff0000 0] [energy 9999.027578 ei 0.585 es 0.000 et 0.021 er 0.367] ------- [0:0 0:0 0 0] 
s 210.001000000 _7_ MAC  --- 0 auv-SYNC 64 [0 7000000 ffff0000 0] [energy 9999.006491 ei 0.603 es 0.000 et 0.021 er 0.369] ------- [0:0 0:0 0 0] 
s 222.405176609 _0_ MAC  --- 0 auv-SYNC 64 [0 0 ffff0000 0] [energy 9999.000786 ei 0.605 es 0.000 et 0.025 er 0.369] ------- [0:0 0:0 0 0] 
s 222.939701195 _3_ MAC  --- 0 auv-SYNC 64 [0 3000000 ffff0000 0] [energy 9998.960907 ei 0.642 es 0.000 et 0.025 er 0.372] ------- [0:0 0:0 0 0] 
s 223.515649326 _1_ MAC  --- 0 auv-SYNC 64 [0 1000000 ffff0000 0] [energy 9998.940613 ei 0.660 es 0.000 et 0.025 er 0.374] ------- [0:0 0:0 0 0] 
s 226.474960962 _5_ MAC  --- 0 auv-SYNC 64 [0 5000000 ffff0000 0] [energy 9998.943319 ei 0.655 es 0.000 et 0.025 er 0.377] ------- [0:0 0:0 0 0] 
s 230.235845142 _2_ MAC  --- 4 vectorbasedforward 1696 [0 2000000 8 0] [energy 9998.787418 ei 0.635 es 0.000 et 0.456 er 0.121] ------- [2:0 2:255 0 3] 
r 230.457666892 _3_ MAC  --- 4 vectorbasedforward 1696 [0 2000000 8 0] [energy 9998.837376 ei 0.689 es 0.000 et 0.030 er 0.444] ------- [2:0 2:255 0 3] 
s 232.209033191 _6_ MAC  --- 0 auv-SYNC 64 [0 6000000 ffff0000 0] [energy 9998.821315 ei 0.704 es 0.000 et 0.034 er 0.441] ------- [0:0 0:0 0 0] 
s 236.799241227 _4_ MAC  --- 0 auv-SYNC 64 [0 4000000 ffff0000 0] [energy 9998.827373 ei 0.699 es 0.000 et 0.025 er 0.449] ------- [0:0 0:0 0 0] 
s 260.001000000 _7_ MAC  --- 0 auv-SYNC 64 [0 7000000 ffff0000 0] [energy 9998.806258 ei 0.717 es 0.000 et 0.025 er 0.451] ------- [0:0 0:0 0 0] 
s 272.405176609 _0_ MAC  --- 0 auv-SYNC 64 [0 0 ffff0000 0] [energy 9998.804798 ei 0.714 es 0.000 et 0.030 er 0.451] ------- [0:0 0:0 0 0] 
s 272.939701195 _3_ MAC  --- 0 auv-SYNC 64 [0 3000000 ffff0000 0] [energy 9998.757647 ei 0.759 es 0.000 et 0.030 er 0.454] ------- [0:0 0:0 0 0] 
s 273.515649326 _1_ MAC  --- 0 auv-SYNC 64 [0 1000000 ffff0000 0] [energy 9998.734303 ei 0.780 es 0.000 et 0.030 er 0.456] ------- [0:0 0:0 0 0] 
s 276.474960962 _5_ MAC  --- 0 auv-SYNC 64 [0 5000000 ffff0000 0] [energy 9998.743151 ei 0.768 es 0.000 et 0.030 er 0.459] ------- [0:0 0:0 0 0] 
s 280.235845142 _2_ MAC  --- 5 vectorbasedforward 1696 [0 2000000 8 0] [energy 9998.550301 ei 0.743 es 0.000 et 0.568 er 0.139] ------- [2:0 2:255 0 3] 
r 280.457666892 _3_ MAC  --- 5 vectorbasedforward 1696 [0 2000000 8 0] [energy 9998.634116 ei 0.806 es 0.000 et 0.034 er 0.526] ------- [2:0 2:255 0 3] 
s 282.209033191 _6_ MAC  --- 0 auv-SYNC 64 [0 6000000 ffff0000 0] [energy 9998.617058 ei 0.822 es 0.000 et 0.038 er 0.523] ------- [0:0 0:0 0 0] 
s 286.799241227 _4_ MAC  --- 0 auv-SYNC 64 [0 4000000 ffff0000 0] [energy 9998.627169 ei 0.812 es 0.000 et 0.030 er 0.531] ------- [0:0 0:0 0 0] 
s 310.001000000 _7_ MAC  --- 0 auv-SYNC 64 [0 7000000 ffff0000 0] [energy 9998.606026 ei 0.831 es 0.000 et 0.030 er 0.533] ------- [0:0 0:0 0 0] 
s 322.405176609 _0_ MAC  --- 0 auv-SYNC 64 [0 0 ffff0000 0] [energy 9998.608810 ei 0.824 es 0.000 et 0.034 er 0.533] ------- [0:0 0:0 0 0] 
s 322.939701195 _3_ MAC  --- 0 auv-SYNC 64 [0 3000000 ffff0000 0] [energy 9998.554387 ei 0.876 es 0.000 et 0.034 er 0.536] ------- [0:0 0:0 0 0] 
s 323.515649326 _1_ MAC  --- 0 auv-SYNC 64 [0 1000000 ffff0000 0] [energy 9998.527993 ei 0.900 es 0.000 et 0.034 er 0.538] ------- [0:0 0:0 0 0] 
s 326.474960962 _5_ MAC  --- 0 auv-SYNC 64 [0 5000000 ffff0000 0] [energy 9998.542983 ei 0.882 es 0.000 et 0.034 er 0.541] ------- [0:0 0:0 0 0] 
s 330.235845142 _2_ MAC  --- 6 vectorbasedforward 1696 [0 2000000 8 0] [energy 9998.313184 ei 0.850 es 0.000 et 0.680 er 0.157] ------- [2:0 2:255 0 3] 
r 330.457666892 _3_ MAC  --- 6 vectorbasedforward 1696 [0 2000000 8 0] [energy 9998.430856 ei 0.923 es 0.000 et 0.038 er 0.608] ------- [2:0 2:255 0 3] 
s 332.209033191 _6_ MAC  --- 0 auv-SYNC 64 [0 6000000 ffff0000 0] [energy 9998.412802 ei 0.940 es 0.000 et 0.042 er 0.605] ------- [0:0 0:0 0 0] 
s 336.799241227 _4_ MAC  --- 0 auv-SYNC 64 [0 4000000 ffff0000 0] [energy 9998.426964 ei 0.926 es 0.000 et 0.034 er 0.613] ------- [0:0 0:0 0 0] 
s 360.001000000 _7_ MAC  --- 0 auv-SYNC 64 [0 7000000 ffff0000 0] [energy 9998.405794 ei 0.945 es 0.000 et 0.034 er 0.616] ------- [0:0 0:0 0 0] 
s 372.405176609 _0_ MAC  --- 0 auv-SYNC 64 [0 0 ffff0000 0] [energy 9998.412821 ei 0.934 es 0.000 et 0.038 er 0.616] ------- [0:0 0:0 0 0] 
s 372.939701195 _3_ MAC  --- 0 auv-SYNC 64 [0 3000000 ffff0000 0] [energy 9998.351127 ei 0.993 es 0.000 et 0.038 er 0.618] ------- [0:0 0:0 0 0] 
s 373.515649326 _1_ MAC  --- 0 auv-SYNC 64 [0 1000000 ffff0000 0] [energy 9998.321682 ei 1.020 es 0.000 et 0.038 er 0.621] ------- [0:0 0:0 0 0] 
s 376.474960962 _5_ MAC  --- 0 auv-SYNC 64 [0 5000000 ffff0000 0] [energy 9998.342815 ei 0.996 es 0.000 et 0.038 er 0.623] ------- [0:0 0:0 0 0] 
s 380.235845142 _2_ MAC  --- 7 vectorbasedforward 1696 [0 2000000 8 0] [energy 9998.076068 ei 0.958 es 0.000 et 0.792 er 0.174] ------- [2:0 2:255 0 3] 
r 380.457666892 _3_ MAC  --- 7 vectorbasedforward 1696 [0 2000000 8 0] [energy 9998.227597 ei 1.040 es 0.000 et 0.042 er 0.690] ------- [2:0 2:255 0 3] 
s 382.209033191 _6_ MAC  --- 0 auv-SYNC 64 [0 6000000 ffff0000 0] [energy 9998.208545 ei 1.057 es 0.000 et 0.046 er 0.688] ------- [0:0 0:0 0 0] 
s 386.799241227 _4_ MAC  --- 0 auv-SYNC 64 [0 4000000 ffff0000 0] [energy 9998.226759 ei 1.040 es 0.000 et 0.038 er 0.695] ------- [0:0 0:0 0 0] 
s 410.001000000 _7_ MAC  --- 0 auv-SYNC 64 [0 7000000 ffff0000 0] [energy 9998.205561 ei 1.059 es 0.000 et 0.038 er 0.698] ------- [0:0 0:0 0 0] 
s 422.405176609 _0_ MAC  --- 0 auv-SYNC 64 [0 0 ffff0000 0] [energy 9998.216833 ei 1.043 es 0.000 et 0.042 er 0.698] ------- [0:0 0:0 0 0] 
s 422.939701195 _3_ MAC  --- 0 auv-SYNC 64 [0 3000000 ffff0000 0] [energy 9998.147867 ei 1.110 es 0.000 et 0.042 er 0.700] ------- [0:0 0:0 0 0] 
s 423.515649326 _1_ MAC  --- 0 auv-SYNC 64 [0 1000000 ffff0000 0] [energy 9998.115372 ei 1.140 es 0.000 et 0.042 er 0.703] ------- [0:0 0:0 0 0] 
s 426.474960962 _5_ MAC  --- 0 auv-SYNC 64 [0 5000000 ffff0000 0] [energy 9998.142647 ei 1.110 es 0.000 et 0.042 er 0.705] ------- [0:0 0:0 0 0] 
s 430.235845142 _2_ MAC  --- 8 vectorbasedforward 1696 [0 2000000 8 0] [energy 9997.838951 ei 1.065 es 0.000 et 0.904 er 0.192] ------- [2:0 2:255 0 3] 
r 430.457666892 _3_ MAC  --- 8 vectorbasedforward 1696 [0 2000000 8 0] [energy 9998.024337 ei 1.157 es 0.000 et 0.046 er 0.772] ------- [2:0 2:255 0 3] 
s 432.209033191 _6_ MAC  --- 0 auv-SYNC 64 [0 6000000 ffff0000 0] [energy 9998.004289 ei 1.175 es 0.000 et 0.051 er 0.770] ------- [0:0 0:0 0 0] 
s 436.799241227 _4_ MAC  --- 0 auv-SYNC 64 [0 4000000 ffff0000 0] [energy 9998.026554 ei 1.154 es 0.000 et 0.042 er 0.777] ------- [0:0 0:0 0 0] 
s 460.001000000 _7_ MAC  --- 0 auv-SYNC 64 [0 7000000 ffff0000 0] [energy 9998.005329 ei 1.173 es 0.000 et 0.042 er 0.780] ------- [0:0 0:0 0 0] 
s 472.405176609 _0_ MAC  --- 0 auv-SYNC 64 [0 0 ffff0000 0] [energy 9998.020845 ei 1.153 es 0.000 et 0.046 er 0.780] ------- [0:0 0:0 0 0] 
s 472.939701195 _3_ MAC  --- 0 auv-SYNC 64 [0 3000000 ffff0000 0] [energy 9997.944607 ei 1.227 es 0.000 et 0.046 er 0.782] ------- [0:0 0:0 0 0] 
s 473.515649326 _1_ MAC  --- 0 auv-SYNC 64 [0 1000000 ffff0000 0] [energy 9997.909061 ei 1.260 es 0.000 et 0.046 er 0.785] ------- [0:0 0:0 0 0] 
s 476.474960962 _5_ MAC  --- 0 auv-SYNC 64 [0 5000000 ffff0000 0] [energy 9997.942479 ei 1.224 es 0.000 et 0.046 er 0.787] ------- [0:0 0:0 0 0] 
s 480.235845142 _2_ MAC  --- 9 vectorbasedforward 1696 [0 2000000 8 0] [energy 9997.601834 ei 1.172 es 0.000 et 1.016 er 0.210] ------- [2:0 2:255 0 3] 
r 480.457666892 _3_ MAC  --- 9 vectorbasedforward 1696 [0 2000000 8 0] [energy 9997.821077 ei 1.274 es 0.000 et 0.051 er 0.854] ------- [2:0 2:255 0 3] 
s 482.209033191 _6_ MAC  --- 0 auv-SYNC 64 [0 6000000 ffff0000 0] [energy 9997.800032 ei 1.293 es 0.000 et 0.055 er 0.852] ------- [0:0 0:0 0 0] 
s 486.799241227 _4_ MAC  --- 0 auv-SYNC 64 [0 4000000 ffff0000 0] [energy 9997.826349 ei 1.268 es 0.000 et 0.046 er 0.860] ------- [0:0 0:0 0 0] 
s 510.001000000 _7_ MAC  --- 0 auv-SYNC 64 [0 7000000 ffff0000 0] [energy 9997.805097 ei 1.286 es 0.000 et 0.046 er 0.862] ------- [0:0 0:0 0 0] 
s 522.405176609 _0_ MAC  --- 0 auv-SYNC 64 [0 0 ffff0000 0] [energy 9997.824857 ei 1.262 es 0.000 et 0.051 er 0.862] ------- [0:0 0:0 0 0] 
s 522.939701195 _3_ MAC  --- 0 auv-SYNC 64 [0 3000000 ffff0000 0] [energy 9997.741348 ei 1.343 es 0.000 et 0.051 er 0.865] ------- [0:0 0:0 0 0] 
s 523.515649326 _1_ MAC  --- 0 auv-SYNC 64 [0 1000000 ffff0000 0] [energy 9997.702751 ei 1.379 es 0.000 et 0.051 er 0.867] ------- [0:0 0:0 0 0] 
s 526.474960962 _5_ MAC  --- 0 auv-SYNC 64 [0 5000000 ffff0000 0] [energy 9997.742311 ei 1.337 es 0.000 et 0.051 er 0.870] ------- [0:0 0:0 0 0] 
s 530.235845142 _2_ MAC  --- 10 vectorbasedforward 1696 [0 2000000 8 0] [energy 9997.364718 ei 1.280 es 0.000 et 1.128 er 0.228] ------- [2:0 2:255 0 3] 
r 530.457666892 _3_ MAC  --- 10 vectorbasedforward 1696 [0 2000000 8 0] [energy 9997.617817 ei 1.391 es 0.000 et 0.055 er 0.937] ------- [2:0 2:255 0 3] 
s 532.209033191 _6_ MAC  --- 0 auv-SYNC 64 [0 6000000 ffff0000 0] [energy 9997.595776 ei 1.411 es 0.000 et 0.059 er 0.934] ------- [0:0 0:0 0 0] 
s 536.799241227 _4_ MAC  --- 0 auv-SYNC 64 [0 4000000 ffff0000 0] [energy 9997.626144 ei 1.381 es 0.000 et 0.051 er 0.942] ------- [0:0 0:0 0 0] 
s 560.001000000 _7_ MAC  --- 0 auv-SYNC 64 [0 7000000 ffff0000 0] [energy 9997.604865 ei 1.400 es 0.000 et 0.051 er 0.944] ------- [0:0 0:0 0 0] 
s 572.405176609 _0_ MAC  --- 0 auv-SYNC 64 [0 0 ffff0000 0] [energy 9997.628868 ei 1.372 es 0.000 et 0.055 er 0.944] ------- [0:0 0:0 0 0] 
s 572.939701195 _3_ MAC  --- 0 auv-SYNC 64 [0 3000000 ffff0000 0] [energy 9997.538088 ei 1.460 es 0.000 et 0.055 er 0.947] ------- [0:0 0:0 0 0] 
s 573.515649326 _1_ MAC  --- 0 auv-SYNC 64 [0 1000000 ffff0000 0] [energy 9997.496441 ei 1.499 es 0.000 et 0.055 er 0.949] ------- [0:0 0:0 0 0] 
s 576.474960962 _5_ MAC  --- 0 auv-SYNC 64 [0 5000000 ffff0000 0] [energy 9997.542143 ei 1.451 es 0.000 et 0.055 er 0.952] ------- [0:0 0:0 0 0] 
s 580.235845142 _2_ MAC  --- 11 vectorbasedforward 1696 [0 2000000 8 0] [energy 9997.127601 ei 1.387 es 0.000 et 1.240 er 0.245] ------- [2:0 2:255 0 3] 
r 580.457666892 _3_ MAC  --- 11 vectorbasedforward 1696 [0 2000000 8 0] [energy 9997.414557 ei 1.508 es 0.000 et 0.059 er 1.019] ------- [2:0 2:255 0 3] 
s 582.209033191 _6_ MAC  --- 0 auv-SYNC 64 [0 6000000 ffff0000 0] [energy 9997.391519 ei 1.529 es 0.000 et 0.063 er 1.016] ------- [0:0 0:0 0 0] 
s 586.799241227 _4_ MAC  --- 0 auv-SYNC 64 [0 4000000 ffff0000 0] [energy 9997.425939 ei 1.495 es 0.000 et 0.055 er 1.024] ------- [0:0 0:0 0 0] 
s 610.001000000 _7_ MAC  --- 0 auv-SYNC 64 [0 7000000 ffff0000 0] [energy 9997.404632 ei 1.514 es 0.000 et 0.055 er 1.026] ------- [0:0 0:0 0 0] 
s 622.405176609 _0_ MAC  --- 0 auv-SYNC 64 [0 0 ffff0000 0] [energy 9997.432880 ei 1.482 es 0.000 et 0.059 er 1.026] ------- [0:0 0:0 0 0] 
s 622.939701195 _3_ MAC  --- 0 auv-SYNC 64 [0 3000000 ffff0000 0] [energy 9997.334828 ei 1.577 es 0.000 et 0.059 er 1.029] ------- [0:0 0:0 0 0] 
s 623.515649326 _1_ MAC  --- 0 auv-SYNC 64 [0 1000000 ffff0000 0] [energy 9997.290130 ei 1.619 es 0.000 et 0.059 er 1.031] ------- [0:0 0:0 0 0] 
s 626.474960962 _5_ MAC  --- 0 auv-SYNC 64 [0 5000000 ffff0000 0] [energy 9997.341975 ei 1.565 es 0.000 et 0.059 er 1.034] ------- [0:0 0:0 0 0] 
s 630.235845142 _2_ MAC  --- 12 vectorbasedforward 1696 [0 2000000 8 0] [energy 9996.890484 ei 1.495 es 0.000 et 1.352 er 0.263] ------- [2:0 2:255 0 3] 
r 630.457666892 _3_ MAC  --- 12 vectorbasedforward 1696 [0 2000000 8 0] [energy 9997.211297 ei 1.624 es 0.000 et 0.063 er 1.101] ------- [2:0 2:255 0 3] 
s 632.209033191 _6_ MAC  --- 0 auv-SYNC 64 [0 6000000 ffff0000 0] [energy 9997.187263 ei 1.647 es 0.000 et 0.068 er 1.098] ------- [0:0 0:0 0 0] 
s 636.799241227 _4_ MAC  --- 0 auv-SYNC 64 [0 4000000 ffff0000 0] [energy 9997.225734 ei 1.609 es 0.000 et 0.059 er 1.106] ------- [0:0 0:0 0 0] 
s 660.001000000 _7_ MAC  --- 0 auv-SYNC 64 [0 7000000 ffff0000 0] [energy 9997.204400 ei 1.628 es 0.000 et 0.059 er 1.109] ------- [0:0 0:0 0 0] 
s 672.405176609 _0_ MAC  --- 0 auv-SYNC 64 [0 0 ffff0000 0] [energy 9997.236892 ei 1.591 es 0.000 et 0.063 er 1.109] ------- [0:0 0:0 0 0] 
s 672.939701195 _3_ MAC  --- 0 auv-SYNC 64 [0 3000000 ffff0000 0] [energy 9997.131568 ei 1.694 es 0.000 et 0.063 er 1.111] ------- [0:0 0:0 0 0] 
s 673.515649326 _1_ MAC  --- 0 auv-SYNC 64 [0 1000000 ffff0000 0] [energy 9997.083820 ei 1.739 es 0.000 et 0.063 er 1.114] ------- [0:0 0:0 0 0] 
s 676.474960962 _5_ MAC  --- 0 auv-SYNC 64 [0 5000000 ffff0000 0] [energy 9997.141807 ei 1.679 es 0.000 et 0.063 er 1.116] ------- [0:0 0:0 0 0] 
s 680.235845142 _2_ MAC  --- 13 vectorbasedforward 1696 [0 2000000 8 0] [energy 9996.653368 ei 1.602 es 0.000 et 1.464 er 0.281] ------- [2:0 2:255 0 3] 
r 680.457666892 _3_ MAC  --- 13 vectorbasedforward 1696 [0 2000000 8 0] [energy 9997.008038 ei 1.741 es 0.000 et 0.068 er 1.183] ------- [2:0 2:255 0 3] 
s 682.209033191 _6_ MAC  --- 0 auv-SYNC 64 [0 6000000 ffff0000 0] [energy 9996.983006 ei 1.765 es 0.000 et 0.072 er 1.181] ------- [0:0 0:0 0 0] 
s 686.799241227 _4_ MAC  --- 0 auv-SYNC 64 [0 4000000 ffff0000 0] [energy 9997.025530 ei 1.723 es 0.000 et 0.063 er 1.188] ------- [0:0 0:0 0 0] 
s 710.001000000 _7_ MAC  --- 0 auv-SYNC 64 [0 7000000 ffff0000 0] [energy 9997.004168 ei 1.742 es 0.000 et 0.063 er 1.191] ------- [0:0 0:0 0 0] 
s 722.405176609 _0_ MAC  --- 0 auv-SYNC 64 [0 0 ffff0000 0] [energy 9997.040904 ei 1.701 es 0.000 et 0.068 er 1.191] ------- [0:0 0:0 0 0] 
s 722.939701195 _3_ MAC  --- 0 auv-SYNC 64 [0 3000000 ffff0000 0] [energy 9996.928308 ei 1.811 es 0.000 et 0.068 er 1.193] ------- [0:0 0:0 0 0] 
s 723.515649326 _1_ MAC  --- 0 auv-SYNC 64 [0 1000000 ffff0000 0] [energy 9996.877509 ei 1.859 es 0.000 et 0.068 er 1.196] ------- [0:0 0:0 0 0] 
s 726.474960962 _5_ MAC  --- 0 auv-SYNC 64 [0 5000000 ffff0000 0] [energy 9996.941639 ei 1.793 es 0.000 et 0.068 er 1.198] ------- [0:0 0:0 0 0] 
s 730.235845142 _2_ MAC  --- 14 vectorbasedforward 1696 [0 2000000 8 0] [energy 9996.416251 ei 1.710 es 0.000 et 1.576 er 0.298] ------- [2:0 2:255 0 3] 
r 730.457666892 _3_ MAC  --- 14 vectorbasedforward 1696 [0 2000000 8 0] [energy 9996.804778 ei 1.858 es 0.000 et 0.072 er 1.265] ------- [2:0 2:255 0 3] 
s 732.209033191 _6_ MAC  --- 0 auv-SYNC 64 [0 6000000 ffff0000 0] [energy 9996.778750 ei 1.882 es 0.000 et 0.076 er 1.263] ------- [0:0 0:0 0 0] 
s 736.799241227 _4_ MAC  --- 0 auv-SYNC 64 [0 4000000 ffff0000 0] [energy 9996.825325 ei 1.837 es 0.000 et 0.068 er 1.270] ------- [0:0 0:0 0 0] 
s 760.001000000 _7_ MAC  --- 0 auv-SYNC 64 [0 7000000 ffff0000 0] [energy 9996.803936 ei 1.856 es 0.000 et 0.068 er 1.273] ------- [0:0 0:0 0 0] 
s 772.405176609 _0_ MAC  --- 0 auv-SYNC 64 [0 0 ffff0000 0] [energy 9996.844915 ei 1.810 es 0.000 et 0.072 er 1.273] ------- [0:0 0:0 0 0] 
s 772.939701195 _3_ MAC  --- 0 auv-SYNC 64 [0 3000000 ffff0000 0] [energy 9996.725049 ei 1.928 es 0.000 et 0.072 er 1.275] ------- [0:0 0:0 0 0] 
s 773.515649326 _1_ MAC  --- 0 auv-SYNC 64 [0 1000000 ffff0000 0] [energy 9996.671199 ei 1.979 es 0.000 et 0.072 er 1.278] ------- [0:0 0:0 0 0] 
s 776.474960962 _5_ MAC  --- 0 auv-SYNC 64 [0 5000000 ffff0000 0] [energy 9996.741472 ei 1.906 es 0.000 et 0.072 er 1.280] ------- [0:0 0:0 0 0] 
s 780.235845142 _2_ MAC  --- 15 vectorbasedforward 1696 [0 2000000 8 0] [energy 9996.179134 ei 1.817 es 0.000 et 1.687 er 0.316] ------- [2:0 2:255 0 3] 
r 780.457666892 _3_ MAC  --- 15 vectorbasedforward 1696 [0 2000000 8 0] [energy 9996.601518 ei 1.975 es 0.000 et 0.076 er 1.347] ------- [2:0 2:255 0 3] 
s 782.209033191 _6_ MAC  --- 0 auv-SYNC 64 [0 6000000 ffff0000 0] [energy 9996.574493 ei 2.000 es 0.000 et 0.080 er 1.345] ------- [0:0 0:0 0 0] 
s 786.799241227 _4_ MAC  --- 0 auv-SYNC 64 [0 4000000 ffff0000 0] [energy 9996.625120 ei 1.951 es 0.000 et 0.072 er 1.352] ------- [0:0 0:0 0 0] 