SillyRrouting
M 0.0 nn 8 x 100 y 100 z 0
M 0.0 prop Propagation/UnderwaterPropagation ant Antenna/OmniAntenna
N -t 1.000000 -n 0 -e 9999.992000
N -t 1.000000 -n 1 -e 9999.992000
N -t 1.000000 -n 2 -e 9999.992000
N -t 1.000000 -n 3 -e 9999.992000
N -t 1.000000 -n 4 -e 9999.992000
N -t 1.000000 -n 5 -e 9999.992000
N -t 1.000000 -n 6 -e 9999.992000
N -t 1.000000 -n 7 -e 9999.992000
N -t 2.000000 -n 0 -e 9999.984000
N -t 2.000000 -n 1 -e 9999.984000
N -t 2.000000 -n 2 -e 9999.984000
N -t 2.000000 -n 3 -e 9999.984000
N -t 2.000000 -n 4 -e 9999.984000
N -t 2.000000 -n 5 -e 9999.984000
N -t 2.000000 -n 6 -e 9999.984000
N -t 2.000000 -n 7 -e 9999.984000
s 2.803010843 _5_ MAC  --- 0 auv-SYNC 64 [0 5000000 ffff0000 0] [energy 9999.984000 ei 0.016 es 0.000 et 0.000 er 0.000] ------- [0:0 0:0 0 0] 
r 2.826524733 _2_ RTR  --- 0 vectorbasedforward 50 [0 0 0 0] [energy 9999.984000 ei 0.016 es 0.000 et 0.000 er 0.000] ------- [2:0 2:255 0 0] 
r 2.847123204 _7_ MAC  --- 0 auv-SYNC 64 [0 5000000 ffff0000 0] [energy 9999.974746 ei 0.023 es 0.000 et 0.000 er 0.003] ------- [0:0 0:0 0 0] 
r 2.847148204 _7_ RTR  --- 0 tcp 0 [0 0 0 0] [energy 9999.974746 ei 0.023 es 0.000 et 0.000 er 0.003] ------- [0:0 0:0 0 0] [0 0] 0 0
r 2.856593702 _4_ MAC  --- 0 auv-SYNC 64 [0 5000000 ffff0000 0] [energy 9999.974670 ei 0.023 es 0.000 et 0.000 er 0.003] ------- [0:0 0:0 0 0] 
r 2.856618702 _4_ RTR  --- 0 tcp 0 [0 0 0 0] [energy 9999.974670 ei 0.023 es 0.000 et 0.000 er 0.003] ------- [0:0 0:0 0 0] [0 0] 0 0
s 2.877731241 _2_ MAC  --- 0 auv-SYNC 64 [0 2000000 ffff0000 0] [energy 9999.984000 ei 0.016 es 0.000 et 0.000 er 0.000] ------- [0:0 0:0 0 0] 
r 2.889688140 _6_ MAC  --- 0 auv-SYNC 64 [0 5000000 ffff0000 0] [energy 9999.974406 ei 0.023 es 0.000 et 0.000 er 0.003] ------- [0:0 0:0 0 0] 
r 2.889713140 _6_ RTR  --- 0 tcp 0 [0 0 0 0] [energy 9999.974406 ei 0.023 es 0.000 et 0.000 er 0.003] ------- [0:0 0:0 0 0] [0 0] 0 0
r 2.899101670 _3_ MAC  --- 0 auv-SYNC 64 [0 5000000 ffff0000 0] [energy 9999.974330 ei 0.023 es 0.000 et 0.000 er 0.003] ------- [0:0 0:0 0 0] 
r 2.899126670 _3_ RTR  --- 0 tcp 0 [0 0 0 0] [energy 9999.974330 ei 0.023 es 0.000 et 0.000 er 0.003] ------- [0:0 0:0 0 0] [0 0] 0 0
r 2.902266765 _0_ MAC  --- 0 auv-SYNC 64 [0 5000000 ffff0000 0] [energy 9999.973855 ei 0.023 es 0.000 et 0.000 er 0.003] ------- [0:0 0:0 0 0] 
r 2.903407017 _0_ MAC  --- 0 auv-SYNC 64 [0 2000000 ffff0000 0] [energy 9999.973855 ei 0.023 es 0.000 et 0.000 er 0.003] ------- [0:0 0:0 0 0] 
r 2.911469649 _2_ MAC  --- 0 auv-SYNC 64 [0 5000000 ffff0000 0] [energy 9999.970059 ei 0.023 es 0.000 et 0.004 er 0.003] ------- [0:0 0:0 0 0] 
r 2.911494649 _2_ RTR  --- 0 tcp 0 [0 0 0 0] [energy 9999.970059 ei 0.023 es 0.000 et 0.004 er 0.003] ------- [0:0 0:0 0 0] [0 0] 0 0
r 2.917703716 _6_ MAC  --- 0 auv-SYNC 64 [0 2000000 ffff0000 0] [energy 9999.971705 ei 0.023 es 0.000 et 0.000 er 0.005] ------- [0:0 0:0 0 0] 
r 2.917728716 _6_ RTR  --- 0 tcp 0 [0 0 0 0] [energy 9999.971705 ei 0.023 es 0.000 et 0.000 er 0.005] ------- [0:0 0:0 0 0] [0 0] 0 0
r 2.926426499 _1_ MAC  --- 0 auv-SYNC 64 [0 2000000 ffff0000 0] [energy 9999.974112 ei 0.023 es 0.000 et 0.000 er 0.003] ------- [0:0 0:0 0 0] 
r 2.926451499 _1_ RTR  --- 0 tcp 0 [0 0 0 0] [energy 9999.974112 ei 0.023 es 0.000 et 0.000 er 0.003] ------- [0:0 0:0 0 0] [0 0] 0 0
r 2.936352990 _3_ MAC  --- 0 auv-SYNC 64 [0 2000000 ffff0000 0] [energy 9999.971556 ei 0.023 es 0.000 et 0.000 er 0.005] ------- [0:0 0:0 0 0] 
r 2.936377990 _3_ RTR  --- 0 tcp 0 [0 0 0 0] [energy 9999.971556 ei 0.023 es 0.000 et 0.000 er 0.005] ------- [0:0 0:0 0 0] [0 0] 0 0
r 2.937648469 _1_ MAC  --- 0 auv-SYNC 64 [0 5000000 ffff0000 0] [energy 9999.971545 ei 0.023 es 0.000 et 0.000 er 0.005] ------- [0:0 0:0 0 0] 
r 2.937673469 _1_ RTR  --- 0 tcp 0 [0 0 0 0] [energy 9999.971545 ei 0.023 es 0.000 et 0.000 er 0.005] ------- [0:0 0:0 0 0] [0 0] 0 0
r 2.939142351 _4_ MAC  --- 0 auv-SYNC 64 [0 2000000 ffff0000 0] [energy 9999.971533 ei 0.023 es 0.000 et 0.000 er 0.005] ------- [0:0 0:0 0 0] 
r 2.939167351 _4_ RTR  --- 0 tcp 0 [0 0 0 0] [energy 9999.971533 ei 0.023 es 0.000 et 0.000 er 0.005] ------- [0:0 0:0 0 0] [0 0] 0 0
r 2.957875544 _7_ MAC  --- 0 auv-SYNC 64 [0 2000000 ffff0000 0] [energy 9999.971383 ei 0.024 es 0.000 et 0.000 er 0.005] ------- [0:0 0:0 0 0] 
r 2.957900544 _7_ RTR  --- 0 tcp 0 [0 0 0 0] [energy 9999.971383 ei 0.024 es 0.000 et 0.000 er 0.005] ------- [0:0 0:0 0 0] [0 0] 0 0
r 2.986190047 _5_ MAC  --- 0 auv-SYNC 64 [0 2000000 ffff0000 0] [energy 9999.969461 ei 0.024 es 0.000 et 0.004 er 0.003] ------- [0:0 0:0 0 0] 
r 2.986215047 _5_ RTR  --- 0 tcp 0 [0 0 0 0] [energy 9999.969461 ei 0.024 es 0.000 et 0.004 er 0.003] ------- [0:0 0:0 0 0] [0 0] 0 0
N -t 3.000000 -n 0 -e 9999.973082
N -t 3.000000 -n 1 -e 9999.971046
N -t 3.000000 -n 2 -e 9999.969350
N -t 3.000000 -n 3 -e 9999.971046
N -t 3.000000 -n 4 -e 9999.971046
N -t 3.000000 -n 5 -e 9999.969350
N -t 3.000000 -n 6 -e 9999.971046
N -t 3.000000 -n 7 -e 9999.971046
N -t 4.000000 -n 0 -e 9999.965082
N -t 4.000000 -n 1 -e 9999.963046
N -t 4.000000 -n 2 -e 9999.961350
N -t 4.000000 -n 3 -e 9999.963046
N -t 4.000000 -n 4 -e 9999.963046
N -t 4.000000 -n 5 -e 9999.961350
N -t 4.000000 -n 6 -e 9999.963046
N -t 4.000000 -n 7 -e 9999.963046
s 4.502763847 _7_ MAC  --- 0 auv-SYNC 64 [0 7000000 ffff0000 0] [energy 9999.963046 ei 0.032 es 0.000 et 0.000 er 0.005] ------- [0:0 0:0 0 0] 
r 4.537518741 _4_ MAC  --- 0 auv-SYNC 64 [0 7000000 ffff0000 0] [energy 9999.956269 ei 0.036 es 0.000 et 0.000 er 0.008] ------- [0:0 0:0 0 0] 
r 4.537543741 _4_ RTR  --- 0 tcp 0 [0 0 0 0] [energy 9999.956269 ei 0.036 es 0.000 et 0.000 er 0.008] ------- [0:0 0:0 0 0] [0 0] 0 0
r 4.546876208 _5_ MAC  --- 0 auv-SYNC 64 [0 7000000 ffff0000 0] [energy 9999.954499 ei 0.036 es 0.000 et 0.004 er 0.005] ------- [0:0 0:0 0 0] 
r 4.546901208 _5_ RTR  --- 0 tcp 0 [0 0 0 0] [energy 9999.954499 ei 0.036 es 0.000 et 0.004 er 0.005] ------- [0:0 0:0 0 0] [0 0] 0 0
r 4.561232178 _3_ MAC  --- 0 auv-SYNC 64 [0 7000000 ffff0000 0] [energy 9999.956080 ei 0.036 es 0.000 et 0.000 er 0.008] ------- [0:0 0:0 0 0] 
r 4.561257178 _3_ RTR  --- 0 tcp 0 [0 0 0 0] [energy 9999.956080 ei 0.036 es 0.000 et 0.000 er 0.008] ------- [0:0 0:0 0 0] [0 0] 0 0
r 4.569533081 _0_ MAC  --- 0 auv-SYNC 64 [0 7000000 ffff0000 0] [energy 9999.958049 ei 0.036 es 0.000 et 0.000 er 0.006] ------- [0:0 0:0 0 0] 
r 4.572057054 _6_ MAC  --- 0 auv-SYNC 64 [0 7000000 ffff0000 0] [energy 9999.955993 ei 0.036 es 0.000 et 0.000 er 0.008] ------- [0:0 0:0 0 0] 
r 4.572082054 _6_ RTR  --- 0 tcp 0 [0 0 0 0] [energy 9999.955993 ei 0.036 es 0.000 et 0.000 er 0.008] ------- [0:0 0:0 0 0] [0 0] 0 0
r 4.582908150 _2_ MAC  --- 0 auv-SYNC 64 [0 7000000 ffff0000 0] [energy 9999.954210 ei 0.037 es 0.000 et 0.004 er 0.005] ------- [0:0 0:0 0 0] 
r 4.582933150 _2_ RTR  --- 0 tcp 0 [0 0 0 0] [energy 9999.954210 ei 0.037 es 0.000 et 0.004 er 0.005] ------- [0:0 0:0 0 0] [0 0] 0 0
r 4.602022162 _1_ MAC  --- 0 auv-SYNC 64 [0 7000000 ffff0000 0] [energy 9999.955753 ei 0.037 es 0.000 et 0.000 er 0.008] ------- [0:0 0:0 0 0] 
r 4.602047162 _1_ RTR  --- 0 tcp 0 [0 0 0 0] [energy 9999.955753 ei 0.037 es 0.000 et 0.000 er 0.008] ------- [0:0 0:0 0 0] [0 0] 0 0
N -t 5.000000 -n 0 -e 9999.954605
N -t 5.000000 -n 1 -e 9999.952570
N -t 5.000000 -n 2 -e 9999.950874
N -t 5.000000 -n 3 -e 9999.952570
N -t 5.000000 -n 4 -e 9999.952570
N -t 5.000000 -n 5 -e 9999.950874
N -t 5.000000 -n 6 -e 9999.952570
N -t 5.000000 -n 7 -e 9999.950874
s 5.521638055 _3_ MAC  --- 0 auv-SYNC 64 [0 3000000 ffff0000 0] [energy 9999.952570 ei 0.040 es 0.000 et 0.000 er 0.008] ------- [0:0 0:0 0 0] 
r 5.561371388 _0_ MAC  --- 0 auv-SYNC 64 [0 3000000 ffff0000 0] [energy 9999.947637 ei 0.044 es 0.000 et 0.000 er 0.008] ------- [0:0 0:0 0 0] 
r 5.574709483 _1_ MAC  --- 0 auv-SYNC 64 [0 3000000 ffff0000 0] [energy 9999.945495 ei 0.044 es 0.000 et 0.000 er 0.010] ------- [0:0 0:0 0 0] 
r 5.574734483 _1_ RTR  --- 0 tcp 0 [0 0 0 0] [energy 9999.945495 ei 0.044 es 0.000 et 0.000 er 0.010] ------- [0:0 0:0 0 0] [0 0] 0 0
r 5.580106386 _7_ MAC  --- 0 auv-SYNC 64 [0 3000000 ffff0000 0] [energy 9999.943756 ei 0.044 es 0.000 et 0.004 er 0.008] ------- [0:0 0:0 0 0] 
r 5.580131386 _7_ RTR  --- 0 tcp 0 [0 0 0 0] [energy 9999.943756 ei 0.044 es 0.000 et 0.004 er 0.008] ------- [0:0 0:0 0 0] [0 0] 0 0
r 5.580259804 _2_ MAC  --- 0 auv-SYNC 64 [0 3000000 ffff0000 0] [energy 9999.943755 ei 0.044 es 0.000 et 0.004 er 0.008] ------- [0:0 0:0 0 0] 
r 5.580284804 _2_ RTR  --- 0 tcp 0 [0 0 0 0] [energy 9999.943755 ei 0.044 es 0.000 et 0.004 er 0.008] ------- [0:0 0:0 0 0] [0 0] 0 0
r 5.585033181 _4_ MAC  --- 0 auv-SYNC 64 [0 3000000 ffff0000 0] [energy 9999.945413 ei 0.044 es 0.000 et 0.000 er 0.010] ------- [0:0 0:0 0 0] 
r 5.585058181 _4_ RTR  --- 0 tcp 0 [0 0 0 0] [energy 9999.945413 ei 0.044 es 0.000 et 0.000 er 0.010] ------- [0:0 0:0 0 0] [0 0] 0 0
r 5.596024982 _6_ MAC  --- 0 auv-SYNC 64 [0 3000000 ffff0000 0] [energy 9999.945325 ei 0.045 es 0.000 et 0.000 er 0.010] ------- [0:0 0:0 0 0] 
r 5.596049982 _6_ RTR  --- 0 tcp 0 [0 0 0 0] [energy 9999.945325 ei 0.045 es 0.000 et 0.000 er 0.010] ------- [0:0 0:0 0 0] [0 0] 0 0
r 5.617728882 _5_ MAC  --- 0 auv-SYNC 64 [0 3000000 ffff0000 0] [energy 9999.943455 ei 0.045 es 0.000 et 0.004 er 0.008] ------- [0:0 0:0 0 0] 
r 5.617753882 _5_ RTR  --- 0 tcp 0 [0 0 0 0] [energy 9999.943455 ei 0.045 es 0.000 et 0.004 er 0.008] ------- [0:0 0:0 0 0] [0 0] 0 0
s 5.983977658 _6_ MAC  --- 0 auv-SYNC 64 [0 6000000 ffff0000 0] [energy 9999.945325 ei 0.045 es 0.000 et 0.000 er 0.010] ------- [0:0 0:0 0 0] 
N -t 6.000000 -n 0 -e 9999.944128
N -t 6.000000 -n 1 -e 9999.942093
N -t 6.000000 -n 2 -e 9999.940397
N -t 6.000000 -n 3 -e 9999.940397
N -t 6.000000 -n 4 -e 9999.942093
N -t 6.000000 -n 5 -e 9999.940397
N -t 6.000000 -n 6 -e 9999.937920
N -t 6.000000 -n 7 -e 9999.940397
r 6.023950134 _2_ MAC  --- 0 auv-SYNC 64 [0 6000000 ffff0000 0] [energy 9999.937728 ei 0.048 es 0.000 et 0.004 er 0.010] ------- [0:0 0:0 0 0] 
r 6.023975134 _2_ RTR  --- 0 tcp 0 [0 0 0 0] [energy 9999.937728 ei 0.048 es 0.000 et 0.004 er 0.010] ------- [0:0 0:0 0 0] [0 0] 0 0
r 6.026334422 _4_ MAC  --- 0 auv-SYNC 64 [0 6000000 ffff0000 0] [energy 9999.939405 ei 0.048 es 0.000 et 0.000 er 0.013] ------- [0:0 0:0 0 0] 
r 6.026359422 _4_ RTR  --- 0 tcp 0 [0 0 0 0] [energy 9999.939405 ei 0.048 es 0.000 et 0.000 er 0.013] ------- [0:0 0:0 0 0] [0 0] 0 0
r 6.030929408 _0_ MAC  --- 0 auv-SYNC 64 [0 6000000 ffff0000 0] [energy 9999.941404 ei 0.048 es 0.000 et 0.000 er 0.011] ------- [0:0 0:0 0 0] 
r 6.053270866 _7_ MAC  --- 0 auv-SYNC 64 [0 6000000 ffff0000 0] [energy 9999.937494 ei 0.048 es 0.000 et 0.004 er 0.010] ------- [0:0 0:0 0 0] 
r 6.053295866 _7_ RTR  --- 0 tcp 0 [0 0 0 0] [energy 9999.937494 ei 0.048 es 0.000 et 0.004 er 0.010] ------- [0:0 0:0 0 0] [0 0] 0 0
r 6.058364585 _3_ MAC  --- 0 auv-SYNC 64 [0 6000000 ffff0000 0] [energy 9999.937453 ei 0.048 es 0.000 et 0.004 er 0.010] ------- [0:0 0:0 0 0] 
r 6.058389585 _3_ RTR  --- 0 tcp 0 [0 0 0 0] [energy 9999.937453 ei 0.048 es 0.000 et 0.004 er 0.010] ------- [0:0 0:0 0 0] [0 0] 0 0
r 6.064916239 _1_ MAC  --- 0 auv-SYNC 64 [0 6000000 ffff0000 0] [energy 9999.939097 ei 0.048 es 0.000 et 0.000 er 0.013] ------- [0:0 0:0 0 0] 
r 6.064941239 _1_ RTR  --- 0 tcp 0 [0 0 0 0] [energy 9999.939097 ei 0.048 es 0.000 et 0.000 er 0.013] ------- [0:0 0:0 0 0] [0 0] 0 0
r 6.070654955 _5_ MAC  --- 0 auv-SYNC 64 [0 6000000 ffff0000 0] [energy 9999.937355 ei 0.048 es 0.000 et 0.004 er 0.010] ------- [0:0 0:0 0 0] 
r 6.070679955 _5_ RTR  --- 0 tcp 0 [0 0 0 0] [energy 9999.937355 ei 0.048 es 0.000 et 0.004 er 0.010] ------- [0:0 0:0 0 0] [0 0] 0 0
N -t 7.000000 -n 0 -e 9999.933652
N -t 7.000000 -n 1 -e 9999.931616
N -t 7.000000 -n 2 -e 9999.929920
N -t 7.000000 -n 3 -e 9999.929920
N -t 7.000000 -n 4 -e 9999.931616
N -t 7.000000 -n 5 -e 9999.929920
N -t 7.000000 -n 6 -e 9999.929920
N -t 7.000000 -n 7 -e 9999.929920
s 7.331042605 _1_ MAC  --- 0 auv-SYNC 64 [0 1000000 ffff0000 0] [energy 9999.931616 ei 0.056 es 0.000 et 0.000 er 0.013] ------- [0:0 0:0 0 0] 
r 7.375160858 _0_ MAC  --- 0 auv-SYNC 64 [0 1000000 ffff0000 0] [energy 9999.928173 ei 0.059 es 0.000 et 0.000 er 0.013] ------- [0:0 0:0 0 0] 
r 7.379737863 _2_ MAC  --- 0 auv-SYNC 64 [0 1000000 ffff0000 0] [energy 9999.924405 ei 0.059 es 0.000 et 0.004 er 0.013] ------- [0:0 0:0 0 0] 
r 7.379762863 _2_ RTR  --- 0 tcp 0 [0 0 0 0] [energy 9999.924405 ei 0.059 es 0.000 et 0.004 er 0.013] ------- [0:0 0:0 0 0] [0 0] 0 0
r 7.384114033 _3_ MAC  --- 0 auv-SYNC 64 [0 1000000 ffff0000 0] [energy 9999.924370 ei 0.059 es 0.000 et 0.004 er 0.013] ------- [0:0 0:0 0 0] 
r 7.384139033 _3_ RTR  --- 0 tcp 0 [0 0 0 0] [energy 9999.924370 ei 0.059 es 0.000 et 0.004 er 0.013] ------- [0:0 0:0 0 0] [0 0] 0 0
r 7.411981185 _6_ MAC  --- 0 auv-SYNC 64 [0 1000000 ffff0000 0] [energy 9999.924147 ei 0.059 es 0.000 et 0.004 er 0.013] ------- [0:0 0:0 0 0] 
r 7.412006185 _6_ RTR  --- 0 tcp 0 [0 0 0 0] [energy 9999.924147 ei 0.059 es 0.000 et 0.004 er 0.013] ------- [0:0 0:0 0 0] [0 0] 0 0
r 7.422828005 _4_ MAC  --- 0 auv-SYNC 64 [0 1000000 ffff0000 0] [energy 9999.925757 ei 0.059 es 0.000 et 0.000 er 0.015] ------- [0:0 0:0 0 0] 
r 7.422853005 _4_ RTR  --- 0 tcp 0 [0 0 0 0] [energy 9999.925757 ei 0.059 es 0.000 et 0.000 er 0.015] ------- [0:0 0:0 0 0] [0 0] 0 0
r 7.430300920 _7_ MAC  --- 0 auv-SYNC 64 [0 1000000 ffff0000 0] [energy 9999.924001 ei 0.059 es 0.000 et 0.004 er 0.013] ------- [0:0 0:0 0 0] 
r 7.430325920 _7_ RTR  --- 0 tcp 0 [0 0 0 0] [energy 9999.924001 ei 0.059 es 0.000 et 0.004 er 0.013] ------- [0:0 0:0 0 0] [0 0] 0 0
r 7.465680231 _5_ MAC  --- 0 auv-SYNC 64 [0 1000000 ffff0000 0] [energy 9999.923718 ei 0.059 es 0.000 et 0.004 er 0.013] ------- [0:0 0:0 0 0] 
r 7.465705231 _5_ RTR  --- 0 tcp 0 [0 0 0 0] [energy 9999.923718 ei 0.059 es 0.000 et 0.004 er 0.013] ------- [0:0 0:0 0 0] [0 0] 0 0
N -t 8.000000 -n 0 -e 9999.923175
N -t 8.000000 -n 1 -e 9999.919443
N -t 8.000000 -n 2 -e 9999.919443
N -t 8.000000 -n 3 -e 9999.919443
N -t 8.000000 -n 4 -e 9999.921139
N -t 8.000000 -n 5 -e 9999.919443
N -t 8.000000 -n 6 -e 9999.919443
N -t 8.000000 -n 7 -e 9999.919443
s 8.167148811 _0_ MAC  --- 0 auv-SYNC 64 [0 0 ffff0000 0] [energy 9999.923175 ei 0.064 es 0.000 et 0.000 er 0.013] ------- [0:0 0:0 0 0] 
r 8.192824588 _2_ MAC  --- 0 auv-SYNC 64 [0 0 ffff0000 0] [energy 9999.915424 ei 0.065 es 0.000 et 0.004 er 0.015] ------- [0:0 0:0 0 0] 
r 8.192849588 _2_ RTR  --- 0 tcp 0 [0 0 0 0] [energy 9999.915424 ei 0.065 es 0.000 et 0.004 er 0.015] ------- [0:0 0:0 0 0] [0 0] 0 0
r 8.206882145 _3_ MAC  --- 0 auv-SYNC 64 [0 0 ffff0000 0] [energy 9999.915311 ei 0.065 es 0.000 et 0.004 er 0.015] ------- [0:0 0:0 0 0] 
r 8.206907145 _3_ RTR  --- 0 tcp 0 [0 0 0 0] [energy 9999.915311 ei 0.065 es 0.000 et 0.004 er 0.015] ------- [0:0 0:0 0 0] [0 0] 0 0
r 8.211267065 _1_ MAC  --- 0 auv-SYNC 64 [0 0 ffff0000 0] [energy 9999.915276 ei 0.065 es 0.000 et 0.004 er 0.015] ------- [0:0 0:0 0 0] 
r 8.211292065 _1_ RTR  --- 0 tcp 0 [0 0 0 0] [energy 9999.915276 ei 0.065 es 0.000 et 0.004 er 0.015] ------- [0:0 0:0 0 0] [0 0] 0 0
r 8.214100561 _6_ MAC  --- 0 auv-SYNC 64 [0 0 ffff0000 0] [energy 9999.915254 ei 0.065 es 0.000 et 0.004 er 0.015] ------- [0:0 0:0 0 0] 
r 8.214125561 _6_ RTR  --- 0 tcp 0 [0 0 0 0] [energy 9999.915254 ei 0.065 es 0.000 et 0.004 er 0.015] ------- [0:0 0:0 0 0] [0 0] 0 0
r 8.221664413 _4_ MAC  --- 0 auv-SYNC 64 [0 0 ffff0000 0] [energy 9999.916889 ei 0.065 es 0.000 et 0.000 er 0.018] ------- [0:0 0:0 0 0] 
r 8.221689413 _4_ RTR  --- 0 tcp 0 [0 0 0 0] [energy 9999.916889 ei 0.065 es 0.000 et 0.000 er 0.018] ------- [0:0 0:0 0 0] [0 0] 0 0
r 8.233918045 _7_ MAC  --- 0 auv-SYNC 64 [0 0 ffff0000 0] [energy 9999.915095 ei 0.066 es 0.000 et 0.004 er 0.015] ------- [0:0 0:0 0 0] 
r 8.233943045 _7_ RTR  --- 0 tcp 0 [0 0 0 0] [energy 9999.915095 ei 0.066 es 0.000 et 0.004 er 0.015] ------- [0:0 0:0 0 0] [0 0] 0 0
r 8.266404733 _5_ MAC  --- 0 auv-SYNC 64 [0 0 ffff0000 0] [energy 9999.914835 ei 0.066 es 0.000 et 0.004 er 0.015] ------- [0:0 0:0 0 0] 
r 8.266429733 _5_ RTR  --- 0 tcp 0 [0 0 0 0] [energy 9999.914835 ei 0.066 es 0.000 et 0.004 er 0.015] ------- [0:0 0:0 0 0] [0 0] 0 0
N -t 9.000000 -n 0 -e 9999.911002
N -t 9.000000 -n 1 -e 9999.908966
N -t 9.000000 -n 2 -e 9999.908966
N -t 9.000000 -n 3 -e 9999.908966
N -t 9.000000 -n 4 -e 9999.910662
N -t 9.