N -t 1.000000 -n 0 -e 9999.992000
N -t 1.000000 -n 1 -e 9999.992000
N -t 1.000000 -n 2 -e 9999.992000
N -t 1.000000 -n 3 -e 9999.992000
N -t 1.000000 -n 4 -e 9999.992000
N -t 1.000000 -n 5 -e 9999.992000
s 1.330025000 _1_ MAC  --- 0 vectorbasedforward 50 [0 1000000 ffff0008 0] [energy 9999.992000 ei 0.008 es 0.000 et 0.000 er 0.000] ------- [1:0 1:255 0 0] 
r 1.401294438 _4_ MAC  --- 0 vectorbasedforward 50 [0 1000000 ffff0008 0] [energy 9999.959110 ei 0.011 es 0.000 et 0.000 er 0.030] ------- [1:0 1:255 0 0] 
r 1.404018463 _2_ MAC  --- 0 vectorbasedforward 50 [0 1000000 ffff0008 0] [energy 9999.959088 ei 0.011 es 0.000 et 0.000 er 0.030] ------- [1:0 1:255 0 0] 
r 1.410025000 _0_ MAC  --- 0 vectorbasedforward 50 [0 1000000 ffff0008 0] [energy 9999.959040 ei 0.011 es 0.000 et 0.000 er 0.030] ------- [1:0 1:255 0 0] 
r 1.413229938 _5_ MAC  --- 0 vectorbasedforward 50 [0 1000000 ffff0008 0] [energy 9999.959014 ei 0.011 es 0.000 et 0.000 er 0.030] ------- [1:0 1:255 0 0] 
r 1.431488630 _3_ MAC  --- 0 vectorbasedforward 50 [0 1000000 ffff0008 0] [energy 9999.958868 ei 0.011 es 0.000 et 0.000 er 0.030] ------- [1:0 1:255 0 0] 
s 1.830025000 _2_ MAC  --- 1 vectorbasedforward 50 [0 2000000 ffff0008 0] [energy 9999.959088 ei 0.011 es 0.000 et 0.000 er 0.030] ------- [2:0 2:255 0 0] 
r 1.901294438 _4_ MAC  --- 1 vectorbasedforward 50 [0 2000000 ffff0008 0] [energy 9999.925430 ei 0.015 es 0.000 et 0.000 er 0.060] ------- [2:0 2:255 0 0] 
r 1.904018463 _1_ MAC  --- 1 vectorbasedforward 50 [0 2000000 ffff0008 0] [energy 9999.875408 ei 0.015 es 0.000 et 0.080 er 0.030] ------- [2:0 2:255 0 0] 
r 1.905926099 _3_ MAC  --- 1 vectorbasedforward 50 [0 2000000 ffff0008 0] [energy 9999.925393 ei 0.015 es 0.000 et 0.000 er 0.060] ------- [2:0 2:255 0 0] 
r 1.916213022 _5_ MAC  --- 1 vectorbasedforward 50 [0 2000000 ffff0008 0] [energy 9999.925310 ei 0.015 es 0.000 et 0.000 er 0.060] ------- [2:0 2:255 0 0] 
r 1.917165452 _0_ MAC  --- 1 vectorbasedforward 50 [0 2000000 ffff0008 0] [energy 9999.925303 ei 0.015 es 0.000 et 0.000 er 0.060] ------- [2:0 2:255 0 0] 
N -t 2.000000 -n 0 -e 9999.924640
N -t 2.000000 -n 1 -e 9999.874640
N -t 2.000000 -n 2 -e 9999.874640
N -t 2.000000 -n 3 -e 9999.924640
N -t 2.000000 -n 4 -e 9999.924640
N -t 2.000000 -n 5 -e 9999.924640
s 2.330025000 _3_ MAC  --- 2 vectorbasedforward 50 [0 3000000 ffff0008 0] [energy 9999.924640 ei 0.015 es 0.000 et 0.000 er 0.060] ------- [3:0 3:255 0 0] 
r 2.405926099 _2_ MAC  --- 2 vectorbasedforward 50 [0 3000000 ffff0008 0] [energy 9999.841713 ei 0.018 es 0.000 et 0.080 er 0.060] ------- [3:0 3:255 0 0] 
r 2.413741257 _4_ MAC  --- 2 vectorbasedforward 50 [0 3000000 ffff0008 0] [energy 9999.891650 ei 0.018 es 0.000 et 0.000 er 0.090] ------- [3:0 3:255 0 0] 
r 2.416691667 _0_ MAC  --- 2 vectorbasedforward 50 [0 3000000 ffff0008 0] [energy 9999.891626 ei 0.018 es 0.000 et 0.000 er 0.090] ------- [3:0 3:255 0 0] 
r 2.418559066 _5_ MAC  --- 2 vectorbasedforward 50 [0 3000000 ffff0008 0] [energy 9999.891612 ei 0.018 es 0.000 et 0.000 er 0.090] ------- [3:0 3:255 0 0] 
r 2.431488630 _1_ MAC  --- 2 vectorbasedforward 50 [0 3000000 ffff0008 0] [energy 9999.841508 ei 0.018 es 0.000 et 0.080 er 0.060] ------- [3:0 3:255 0 0] 
s 2.830025000 _4_ MAC  --- 3 vectorbasedforward 50 [0 4000000 ffff0008 0] [energy 9999.891650 ei 0.018 es 0.000 et 0.000 er 0.090] ------- [4:0 4:255 0 0] 
r 2.886354932 _5_ MAC  --- 3 vectorbasedforward 50 [0 4000000 ffff0008 0] [energy 9999.858189 ei 0.022 es 0.000 et 0.000 er 0.120] ------- [4:0 4:255 0 0] 
r 2.901294438 _2_ MAC  --- 3 vectorbasedforward 50 [0 4000000 ffff0008 0] [energy 9999.808070 ei 0.022 es 0.000 et 0.080 er 0.090] ------- [4:0 4:255 0 0] 
r 2.901294438 _1_ MAC  --- 3 vectorbasedforward 50 [0 4000000 ffff0008 0] [energy 9999.808070 ei 0.022 es 0.000 et 0.080 er 0.090] ------- [4:0 4:255 0 0] 
r 2.901294438 _0_ MAC  --- 3 vectorbasedforward 50 [0 4000000 ffff0008 0] [energy 9999.858070 ei 0.022 es 0.000 et 0.000 er 0.120] ------- [4:0 4:255 0 0] 
r 2.913741257 _3_ MAC  --- 3 vectorbasedforward 50 [0 4000000 ffff0008 0] [energy 9999.807970 ei 0.022 es 0.000 et 0.080 er 0.090] ------- [4:0 4:255 0 0] 
N -t 3.000000 -n 0 -e 9999.857280
N -t 3.000000 -n 1 -e 9999.807280
N -t 3.000000 -n 2 -e 9999.807280
N -t 3.000000 -n 3 -e 9999.807280
N -t 3.000000 -n 4 -e 9999.807280
N -t 3.000000 -n 5 -e 9999.857280
s 3.330025000 _5_ MAC  --- 4 vectorbasedforward 50 [0 5000000 ffff0008 0] [energy 9999.857280 ei 0.023 es 0.000 et 0.000 er 0.120] ------- [5:0 5:255 0 0] 
r 3.386354932 _4_ MAC  --- 4 vectorbasedforward 50 [0 5000000 ffff0008 0] [energy 9999.774509 ei 0.025 es 0.000 et 0.080 er 0.120] ------- [5:0 5:255 0 0] 
r 3.398309271 _0_ MAC  --- 4 vectorbasedforward 50 [0 5000000 ffff0008 0] [energy 9999.824414 ei 0.026 es 0.000 et 0.000 er 0.150] ------- [5:0 5:255 0 0] 
r 3.413229938 _1_ MAC  --- 4 vectorbasedforward 50 [0 5000000 ffff0008 0] [energy 9999.774294 ei 0.026 es 0.000 et 0.080 er 0.120] ------- [5:0 5:255 0 0] 
r 3.416213022 _2_ MAC  --- 4 vectorbasedforward 50 [0 5000000 ffff0008 0] [energy 9999.774270 ei 0.026 es 0.000 et 0.080 er 0.120] ------- [5:0 5:255 0 0] 
r 3.418559066 _3_ MAC  --- 4 vectorbasedforward 50 [0 5000000 ffff0008 0] [energy 9999.774252 ei 0.026 es 0.000 et 0.080 er 0.120] ------- [5:0 5:255 0 0] 
N -t 4.000000 -n 0 -e 9999.819600
N -t 4.000000 -n 1 -e 9999.769600
N -t 4.000000 -n 2 -e 9999.769600
N -t 4.000000 -n 3 -e 9999.769600
N -t 4.000000 -n 4 -e 9999.769600
N -t 4.000000 -n 5 -e 9999.769600
s 4.389050257 _3_ MAC  --- 1 vectorbasedforward 50 [0 3000000 ffff0008 0] [energy 9999.769600 ei 0.030 es 0.000 et 0.080 er 0.120] ------- [2:0 2:255 0 0] 
r 4.464951356 _2_ MAC  --- 1 vectorbasedforward 50 [0 3000000 ffff0008 0] [energy 9999.736200 ei 0.034 es 0.000 et 0.080 er 0.150] ------- [2:0 2:255 0 0] 
r 4.472766514 _4_ MAC  --- 1 vectorbasedforward 50 [0 3000000 ffff0008 0] [energy 9999.736138 ei 0.034 es 0.000 et 0.080 er 0.150] ------- [2:0 2:255 0 0] 
r 4.475716924 _0_ MAC  --- 1 vectorbasedforward 50 [0 3000000 ffff0008 0] [energy 9999.786114 ei 0.034 es 0.000 et 0.000 er 0.180] ------- [2:0 2:255 0 0] 
r 4.477584323 _5_ MAC  --- 1 vectorbasedforward 50 [0 3000000 ffff0008 0] [energy 9999.736099 ei 0.034 es 0.000 et 0.080 er 0.150] ------- [2:0 2:255 0 0] 
r 4.490513887 _1_ MAC  --- 1 vectorbasedforward 50 [0 3000000 ffff0008 0] [energy 9999.735996 ei 0.034 es 0.000 et 0.080 er 0.150] ------- [2:0 2:255 0 0] 
s 4.837957229 _2_ MAC  --- 2 vectorbasedforward 50 [0 2000000 ffff0008 0] [energy 9999.736200 ei 0.034 es 0.000 et 0.080 er 0.150] ------- [3:0 3:255 0 0] 
r 4.909226668 _4_ MAC  --- 2 vectorbasedforward 50 [0 2000000 ffff0008 0] [energy 9999.702966 ei 0.037 es 0.000 et 0.080 er 0.180] ------- [3:0 3:255 0 0] 
r 4.911950693 _1_ MAC  --- 2 vectorbasedforward 50 [0 2000000 ffff0008 0] [energy 9999.702944 ei 0.037 es 0.000 et 0.080 er 0.180] ------- [3:0 3:255 0 0] 
r 4.913858328 _3_ MAC  --- 2 vectorbasedforward 50 [0 2000000 ffff0008 0] [energy 9999.652929 ei 0.037 es 0.000 et 0.160 er 0.150] ------- [3:0 3:255 0 0] 
r 4.924145251 _5_ MAC  --- 2 vectorbasedforward 50 [0 2000000 ffff0008 0] [energy 9999.702847 ei 0.037 es 0.000 et 0.080 er 0.180] ------- [3:0 3:255 0 0] 
r 4.925097681 _0_ MAC  --- 2 vectorbasedforward 50 [0 2000000 ffff0008 0] [energy 9999.752839 ei 0.037 es 0.000 et 0.000 er 0.210] ------- [3:0 3:255 0 0] 
N -t 5.000000 -n 0 -e 9999.752240
N -t 5.000000 -n 1 -e 9999.702240
N -t 5.000000 -n 2 -e 9999.652240
N -t 5.000000 -n 3 -e 9999.652240
N -t 5.000000 -n 4 -e 9999.702240
N -t 5.000000 -n 5 -e 9999.702240
s 5.395594214 _5_ MAC  --- 3 vectorbasedforward 50 [0 5000000 ffff0008 0] [energy 9999.702240 ei 0.038 es 0.000 et 0.080 er 0.180] ------- [4:0 4:255 0 0] 
r 5.451924146 _4_ MAC  --- 3 vectorbasedforward 50 [0 5000000 ffff0008 0] [energy 9999.668945 ei 0.041 es 0.000 et 0.080 er 0.210] ------- [4:0 4:255 0 0] 
r 5.463878485 _0_ MAC  --- 3 vectorbasedforward 50 [0 5000000 ffff0008 0] [energy 9999.718849 ei 0.041 es 0.000 et 0.000 er 0.240] ------- [4:0 4:255 0 0] 
r 5.478799152 _1_ MAC  --- 3 vectorbasedforward 50 [0 5000000 ffff0008 0] [energy 9999.668730 ei 0.041 es 0.000 et 0.080 er 0.210] ------- [4:0 4:255 0 0] 
r 5.481782236 _2_ MAC  --- 3 vectorbasedforward 50 [0 5000000 ffff0008 0] [energy 9999.618706 ei 0.041 es 0.000 et 0.160 er 0.180] ------- [4:0 4:255 0 0] 
r 5.484128280 _3_ MAC  --- 3 vectorbasedforward 50 [0 5000000 ffff0008 0] [energy 9999.618687 ei 0.041 es 0.000 et 0.160 er 0.180] ------- [4:0 4:255 0 0] 
s 5.511406501 _1_ MAC  --- 3 vectorbasedforward 50 [0 1000000 ffff0008 0] [energy 9999.668730 ei 0.041 es 0.000 et 0.080 er 0.210] ------- [4:0 4:255 0 0] 
r 5.582675939 _4_ MAC  --- 3 vectorbasedforward 50 [0 1000000 ffff0008 0] [energy 9999.638219 ei 0.042 es 0.000 et 0.080 er 0.240] ------- [4:0 4:255 0 0] 
r 5.585399964 _2_ MAC  --- 3 vectorbasedforward 50 [0 1000000 ffff0008 0] [energy 9999.588197 ei 0.042 es 0.000 et 0.160 er 0.210] ------- [4:0 4:255 0 0] 
r 5.591406501 _0_ MAC  --- 3 vectorbasedforward 50 [0 1000000 ffff0008 0] [energy 9999.688149 ei 0.042 es 0.000 et 0.000 er 0.270] ------- [4:0 4:255 0 0] 
r 5.594611439 _5_ MAC  --- 3 vectorbasedforward 50 [0 1000000 ffff0008 0] [energy 9999.588123 ei 0.042 es 0.000 et 0.160 er 0.210] ------- [4:0 4:255 0 0] 
r 5.612870130 _3_ MAC  --- 3 vectorbasedforward 50 [0 1000000 ffff0008 0] [energy 9999.587977 ei 0.042 es 0.000 et 0.160 er 0.210] ------- [4:0 4:255 0 0] 
s 5.934714013 _4_ MAC  --- 4 vectorbasedforward 50 [0 4000000 ffff0008 0] [energy 9999.638219 ei 0.042 es 0.000 et 0.080 er 0.240] ------- [5:0 5:255 0 0] 
r 5.991043944 _5_ MAC  --- 4 vectorbasedforward 50 [0 4000000 ffff0008 0] [energy 9999.555272 ei 0.045 es 0.000 et 0.160 er 0.240] ------- [5:0 5:255 0 0] 
N -t 6.000000 -n 0 -e 9999.655152
N -t 6.000000 -n 1 -e 9999.555152
N -t 6.000000 -n 2 -e 9999.555152
N -t 6.000000 -n 3 -e 9999.555053
N -t 6.000000 -n 4 -e 9999.555200
N -t 6.000000 -n 5 -e 9999.555200
r 6.005983451 _2_ MAC  --- 4 vectorbasedforward 50 [0 4000000 ffff0008 0] [energy 9999.555152 ei 0.045 es 0.000 et 0.160 er 0.240] ------- [5:0 5:255 0 0] 
r 6.005983451 _1_ MAC  --- 4 vectorbasedforward 50 [0 4000000 ffff0008 0] [energy 9999.555152 ei 0.045 es 0.000 et 0.160 er 0.240] ------- [5:0 5:255 0 0] 
r 6.005983451 _0_ MAC  --- 4 vectorbasedforward 50 [0 4000000 ffff0008 0] [energy 9999.655152 ei 0.045 es 0.000 et 0.000 er 0.300] ------- [5:0 5:255 0 0] 
r 6.018430270 _3_ MAC  --- 4 vectorbasedforward 50 [0 4000000 ffff0008 0] [energy 9999.555053 ei 0.045 es 0.000 et 0.160 er 0.240] ------- [5:0 5:255 0 0] 
N -t 7.000000 -n 0 -e 9999.647200
N -t 7.000000 -n 1 -e 9999.547200
N -t 7.000000 -n 2 -e 9999.547200
N -t 7.000000 -n 3 -e 9999.547200
N -t 7.000000 -n 4 -e 9999.547200
N -t 7.000000 -n 5 -e 9999.547200
N -t 8.000000 -n 0 -e 9999.639200
N -t 8.000000 -n 1 -e 9999.539200
N -t 8.000000 -n 2 -e 9999.539200
N -t 8.000000 -n 3 -e 9999.539200
N -t 8.000000 -n 4 -e 9999.539200
N -t 8.000000 -n 5 -e 9999.539200
N -t 9.000000 -n 0 -e 9999.631200
N -t 9.000000 -n 1 -e 9999.531200
N -t 9.000000 -n 2 -e 9999.531200
N -t 9.000000 -n 3 -e 9999.531200
N -t 9.000000 -n 4 -e 9999.531200
N -t 9.000000 -n 5 -e 9999.531200
N -t 10.000000 -n 0 -e 9999.623200
N -t 10.000000 -n 1 -e 9999.523200
N -t 10.000000 -n 2 -e 9999.523200
N -t 10.000000 -n 3 -e 9999.523200
N -t 10.000000 -n 4 -e 9999.523200
N -t 10.000000 -n 5 -e 9999.523200
N -t 11.000000 -n 0 -e 9999.615200
N -t 11.000000 -n 1 -e 9999.515200
N -t 11.000000 -n 2 -e 9999.515200
N -t 11.000000 -n 3 -e 9999.515200
N -t 11.000000 -n 4 -e 9999.515200
N -t 11.000000 -n 5 -e 9999.515200
s 11.330025000 _1_ MAC  --- 5 vectorbasedforward 50 [0 1000000 ffff0008 0] [energy 9999.515200 ei 0.085 es 0.000 et 0.160 er 0.240] ------- [1:0 1:255 0 0] 
r 11.401294438 _4_ MAC  --- 5 vectorbasedforward 50 [0 1000000 ffff0008 0] [energy 9999.482310 ei 0.088 es 0.000 et 0.160 er 0.270] ------- [1:0 1:255 0 0] 
r 11.404018463 _2_ MAC  --- 5 vectorbasedforward 50 [0 1000000 ffff0008 0] [energy 9999.482288 ei 0.088 es 0.000 et 0.160 er 0.270] ------- [1:0 1:255 0 0] 
r 11.410025000 _0_ MAC  --- 5 vectorbasedforward 50 [0 1000000 ffff0008 0] [energy 9999.582240 ei 0.088 es 0.000 et 0.000 er 0.330] ------- [1:0 1:255 0 0] 
r 11.413229938 _5_ MAC  --- 5 vectorbasedforward 50 [0 1000000 ffff0008 0] [energy 9999.482214 ei 0.088 es 0.000 et 0.160 er 0.270] ------- [1:0 1:255 0 0] 
r 11.431488630 _3_ MAC  --- 5 vectorbasedforward 50 [0 1000000 ffff0008 0] [energy 9999.482068 ei 0.088 es 0.000 et 0.160 er 0.270] ------- [1:0 1:255 0 0] 
s 11.830025000 _2_ MAC  --- 6 vectorbasedforward 50 [0 2000000 ffff0008 0] [energy 9999.482288 ei 0.088 es 0.000 et 0.160 er 0.270] ------- [2:0 2:255 0 0] 
r 11.901294438 _4_ MAC  --- 6 vectorbasedforward 50 [0 2000000 ffff0008 0] [energy 9999.448630 ei 0.091 es 0.000 et 0.160 er 0.300] ------- [2:0 2:255 0 0] 
r 11.904018463 _1_ MAC  --- 6 vectorbasedforward 50 [0 2000000 ffff0008 0] [energy 9999.398608 ei 0.091 es 0.000 et 0.240 er 0.270] ------- [2:0 2:255 0 0] 
r 11.905926099 _3_ MAC  --- 6 vectorbasedforward 50 [0 2000000 ffff0008 0] [energy 9999.448593 ei 0.091 es 0.000 et 0.160 er 0.300] ------- [2:0 2:255 0 0] 
r 11.916213022 _5_ MAC  --- 6 vectorbasedforward 50 [0 2000000 ffff0008 0] [energy 9999.448510 ei 0.091 es 0.000 et 0.160 er 0.300] ------- [2:0 2:255 0 0] 
r 11.917165452 _0_ MAC  --- 6 vectorbasedforward 50 [0 2000000 ffff0008 0] [energy 9999.548503 ei 0.091 es 0.000 et 0.000 er 0.360] ------- [2:0 2:255 0 0] 
N -t 12.000000 -n 0 -e 9999.547840
N -t 12.000000 -n 1 -e 9999.397840
N -t 12.000000 -n 2 -e 9999.397840
N -t 12.000000 -n 3 -e 9999.447840
N -t 12.000000 -n 4 -e 9999.447840
N -t 12.000000 -n 5 -e 9999.447840
s 12.330025000 _3_ MAC  --- 7 vectorbasedforward 50 [0 3000000 ffff0008 0] [energy 9999.447840 ei 0.092 es 0.000 et 0.160 er 0.300] ------- [3:0 3:255 0 0] 
r 12.405926099 _2_ MAC  --- 7 vectorbasedforward 50 [0 3000000 ffff0008 0] [energy 9999.364913 ei 0.095 es 0.000 et 0.240 er 0.300] ------- [3:0 3:255 0 0] 
r 12.413741257 _4_ MAC  --- 7 vectorbasedforward 50 [0 3000000 ffff0008 0] [energy 9999.414850 ei 0.095 es 0.000 et 0.160 er 0.330] ------- [3:0 3:255 0 0] 
r 12.416691667 _0_ MAC  --- 7 vectorbasedforward 50 [0 3000000 ffff0008 0] [energy 9999.514826 ei 0.095 es 0.000 et 0.000 er 0.390] ------- [3:0 3:255 0 0] 
r 12.418559066 _5_ MAC  --- 7 vectorbasedforward 50 [0 3000000 ffff0008 0] [energy 9999.414812 ei 0.095 es 0.000 et 0.160 er 0.330] ------- [3:0 3:255 0 0] 
r 12.431488630 _1_ MAC  --- 7 vectorbasedforward 50 [0 3000000 ffff0008 0] [energy 9999.364708 ei 0.095 es 0.000 et 0.240 er 0.300] ------- [3:0 3:255 0 0] 
s 12.830025000 _4_ MAC  --- 8 vectorbasedforward 50 [0 4000000 ffff0008 0] [energy 9999.414850 ei 0.095 es 0.000 et 0.160 er 0.330] ------- [4:0 4:255 0 0] 
r 12.886354932 _5_ MAC  --- 8 vectorbasedforward 50 [0 4000000 ffff0008 0] [energy 9999.381389 ei 0.099 es 0.000 et 0.160 er 0.360] ------- [4:0 4:255 0 0] 
r 12.901294438 _2_ MAC  --- 8 vectorbasedforward 50 [0 4000000 ffff0008 0] [energy 9999.331270 ei 0.099 es 0.000 et 0.240 er 0.330] ------- [4:0 4:255 0 0] 
r 12.901294438 _1_ MAC  --- 8 vectorbasedforward 50 [0 4000000 ffff0008 0] [energy 9999.331270 ei 0.099 es 0.000 et 0.240 er 0.330] ------- [4:0 4:255 0 0] 
r 12.901294438 _0_ MAC  --- 8 vectorbasedforward 50 [0 4000000 ffff0008 0] [energy 9999.481270 ei 0.099 es 0.000 et 0.000 er 0.420] ------- [4:0 4:255 0 0] 
r 12.913741257 _3_ MAC  --- 8 vectorbasedforward 50 [0 4000000 ffff0008 0] [energy 9999.331170 ei 0.099 es 0.000 et 0.240 er 0.330] ------- [4:0 4:255 0 0] 
N -t 13.000000 -n 0 -e 9999.480480
N -t 13.000000 -n 1 -e 9999.330480
N -t 13.000000 -n 2 -e 9999.330480
N -t 13.000000 -n 3 -e 9999.330480
N -t 13.000000 -n 4 -e 9999.330480
N -t 13.000000 -n 5 -e 9999.380480
s 13.330025000 _5_ MAC  --- 9 vectorbasedforward 50 [0 5000000 ffff0008 0] [energy 9999.380480 ei 0.100 es 0.000 et 0.160 er 0.360] ------- [5:0 5:255 0 0] 
r 13.386354932 _4_ MAC  --- 9 vectorbasedforward 50 [0 5000000 ffff0008 0] [energy 9999.297709 ei 0.102 es 0.000 et 0.240 er 0.360] ------- [5:0 5:255 0 0] 
r 13.398309271 _0_ MAC  --- 9 vectorbasedforward 50 [0 5000000 ffff0008 0] [energy 9999.447614 ei 0.102 es 0.000 et 0.000 er 0.450] ------- [5:0 5:255 0 0] 
r 13.413229938 _1_ MAC  --- 9 vectorbasedforward 50 [0 5000000 ffff0008 0] [energy 9999.297494 ei 0.103 es 0.000 et 0.240 er 0.360] ------- [5:0 5:255 0 0] 
r 13.416213022 _2_ MAC  --- 9 vectorbasedforward 50 [0 5000000 ffff0008 0] [energy 9999.297470 ei 0.103 es 0.000 et 0.240 er 0.360] ------- [5:0 5:255 0 0] 
r 13.418559066 _3_ MAC  --- 9 vectorbasedforward 50 [0 5000000 ffff0008 0] [energy 9999.297452 ei 0.103 es 0.000 et 0.240 er 0.360] ------- [5:0 5:255 0 0] 
s 13.977866269 _4_ MAC  --- 5 vectorbasedforward 50 [0 4000000 ffff0008 0] [energy 9999.297709 ei 0.102 es 0.000 et 0.240 er 0.360] ------- [1:0 1:255 0 0] 
s 13.991603286 _5_ MAC  --- 5 vectorbasedforward 50 [0 5000000 ffff0008 0] [energy 9999.297840 ei 0.102 es 0.000 et 0.240 er 0.360] ------- [1:0 1:255 0 0] 
N -t 14.000000 -n 0 -e 9999.442800
N -t 14.000000 -n 1 -e 9999.292800
N -t 14.000000 -n 2 -e 9999.292800
N -t 14.000000 -n 3 -e 9999.292800
N -t 14.000000 -n 4 -e 9999.212977
N -t 14.000000 -n 5 -e 9999.210922
r 14.034196201 _5_ MAC  --- 5 vectorbasedforward 50 [0 4000000 ffff0008 0] [energy 9999.210922 ei 0.107 es 0.000 et 0.320 er 0.362] ------- [1:0 1:255 0 0] 
r 14.047933217 _4_ MAC  --- 5 vectorbasedforward 50 [0 5000000 ffff0008 0] [energy 9999.190427 ei 0.107 es 0.000 et 0.320 er 0.383] ------- [1:0 1:255 0 0] 
D 14.049135707 _2_ MAC Error/Collision 5 vectorbasedforward 50 [0 4000000 ffff0008 0] [energy 9999.241235 ei 0.107 es 0.000 et 0.240 er 0.411] ------- [1:0 1:255 0 0] 
D 14.049135707 _1_ MAC Error/Collision 5 vectorbasedforward 50 [0 4000000 ffff0008 0] [energy 9999.243473 ei 0.107 es 0.000 et 0.240 er 0.409] ------- [1:0 1:255 0 0] 
D 14.049135707 _0_ MAC Error/Collision 5 vectorbasedforward 50 [0 4000000 ffff0008 0] [energy 9999.404663 ei 0.107 es 0.000 et 0.000 er 0.488] ------- [1:0 1:255 0 0] 
D 14.059887557 _0_ MAC Error/Collision 5 vectorbasedforward 50 [0 5000000 ffff0008 0] [energy 9999.404663 ei 0.107 es 0.000 et 0.000 er 0.488] ------- [1:0 1:255 0 0] 
D 14.061582526 _3_ MAC Error/Collision 5 vectorbasedforward 50 [0 4000000 ffff0008 0] [energy 9999.248711 ei 0.107 es 0.000 et 0.240 er 0.404] ------- [1:0 1:255 0 0] 
D 14.074808224 _1_ MAC Error/Collision 5 vectorbasedforward 50 [0 5000000 ffff0008 0] [energy 9999.243473 ei 0.107 es 0.000 et 0.240 er 0.409] ------- [1:0 1:255 0 0] 
D 14.077791307 _2_ MAC Error/Collision 5 vectorbasedforward 50 [0 5000000 ffff0008 0] [energy 9999.241235 ei 0.107 es 0.000 et 0.240 er 0.411] ------- [1:0 1:255 0 0] 
D 14.080137352 _3_ MAC Error/Collision 5 vectorbasedforward 50 [0 5000000 ffff0008 0] [energy 9999.248711 ei 0.107 es 0.000 et 0.240 er 0.404] ------- [1:0 1:255 0 0] 
s 14.389050257 _3_ MAC  --- 6 vectorbasedforward 50 [0 3000000 ffff0008 0] [energy 9999.248711 ei 0.107 es 0.000 et 0.240 er 0.404] ------- [2:0 2:255 0 0] 
r 14.464951356 _2_ MAC  --- 6 vectorbasedforward 50 [0 3000000 ffff0008 0] [energy 9999.208458 ei 0.110 es 0.000 et 0.240 er 0.441] ------- [2:0 2:255 0 0] 
r 14.472766514 _4_ MAC  --- 6 vectorbasedforward 50 [0 3000000 ffff0008 0] [energy 9999.157348 ei 0.110 es 0.000 et 0.320 er 0.413] ------- [2:0 2:255 0 0] 
r 14.475716924 _0_ MAC  --- 6 vectorbasedforward 50 [0 3000000 ffff0008 0] [energy 9999.371656 ei 0.110 es 0.000 et 0.000 er 0.518] ------- [2:0 2:255 0 0] 
r 14.477584323 _5_ MAC  --- 6 vectorbasedforward 50 [0 3000000 ffff0008 0] [energy 9999.177695 ei 0.110 es 0.000 et 0.320 er 0.392] ------- [2:0 2:255 0 0] 
r 14.490513887 _1_ MAC  --- 6 vectorbasedforward 50 [0 3000000 ffff0008 0] [energy 9999.210467 ei 0.110 es 0.000 et 0.240 er 0.439] ------- [2:0 2:255 0 0] 
s 14.837957229 _2_ MAC  --- 7 vectorbasedforward 50 [0 2000000 ffff0008 0] [energy 9999.208458 ei 0.110 es 0.000 et 0.240 er 0.441] ------- [3:0 3:255 0 0] 
r 14.909226668 _4_ MAC  --- 7 vectorbasedforward 50 [0 2000000 ffff0008 0] [energy 9999.124177 ei 0.113 es 0.000 et 0.320 er 0.443] ------- [3:0 3:255 0 0] 
r 14.911950693 _1_ MAC  --- 7 vectorbasedforward 50 [0 2000000 ffff0008 0] [energy 9999.177415 ei 0.113 es 0.000 et 0.240 er 0.469] ------- [3:0 3:255 0 0] 
r 14.913858328 _3_ MAC  --- 7 vectorbasedforward 50 [0 2000000 ffff0008 0] [energy 9999.132681 ei 0.113 es 0.000 et 0.320 er 0.434] ------- [3:0 3:255 0 0] 
r 14.924145251 _5_ MAC  --- 7 vectorbasedforward 50 [0 2000000 ffff0008 0] [energy 9999.144443 ei 0.114 es 0.000 et 0.320 er 0.422] ------- [3:0 3:255 0 0] 
r 14.925097681 _0_ MAC  --- 7 vectorbasedforward 50 [0 2000000 ffff0008 0] [energy 9999.338381 ei 0.114 es 0.000 et 0.000 er 0.548] ------- [3:0 3:255 0 0] 
N -t 15.000000 -n 0 -e 9999.337782
N -t 15.000000 -n 1 -e 9999.176711
N -t 15.000000 -n 2 -e 9999.124498
N -t 15.000000 -n 3 -e 9999.131992
N -t 15.000000 -n 4 -e 9999.123450
N -t 15.000000 -n 5 -e 9999.143836
s 15.395594214 _5_ MAC  --- 8 vectorbasedforward 50 [0 5000000 ffff0008 0] [energy 9999.143836 ei 0.114 es 0.000 et 0.320 er 0.422] ------- [4:0 4:255 0 0] 
r 15.451924146 _4_ MAC  --- 8 vectorbasedforward 50 [0 5000000 ffff0008 0] [energy 9999.090155 ei 0.117 es 0.000 et 0.320 er 0.473] ------- [4:0 4:255 0 0] 
r 15.463878485 _0_ MAC  --- 8 vectorbasedforward 50 [0 5000000 ffff0008 0] [energy 9999.304391 ei 0.118 es 0.000 et 0.000 er 0.578] ------- [4:0 4:255 0 0] 
r 15.478799152 _1_ MAC  --- 8 vectorbasedforward 50 [0 5000000 ffff0008 0] [energy 9999.143201 ei 0.118 es 0.000 et 0.240 er 0.499] ------- [4:0 4:255 0 0] 
r 15.481782236 _2_ MAC  --- 8 vectorbasedforward 50 [0 5000000 ffff0008 0] [energy 9999.090963 ei 0.118 es 0.000 et 0.320 er 0.471] ------- [4:0 4:255 0 0] 
r 15.484128280 _3_ MAC  --- 8 vectorbasedforward 50 [0 5000000 ffff0008 0] [energy 9999.098439 ei 0.118 es 0.000 et 0.320 er 0.464] ------- [4:0 4:255 0 0] 
s 15.500744049 _1_ MAC  --- 8 vectorbasedforward 50 [0 1000000 ffff0008 0] [energy 9999.143201 ei 0.118 es 0.000 et 0.240 er 0.499] ------- [4:0 4:255 0 0] 
r 15.572013488 _4_ MAC  --- 8 vectorbasedforward 50 [0 1000000 ffff0008 0] [energy 9999.059514 ei 0.118 es 0.000 et 0.320 er 0.503] ------- [4:0 4:255 0 0] 
r 15.574737513 _2_ MAC  --- 8 vectorbasedforward 50 [0 1000000 ffff0008 0] [energy 9999.060540 ei 0.118 es 0.000 et 0.320 er 0.501] ------- [4:0 4:255 0 0] 
r 15.580744049 _0_ MAC  --- 8 vectorbasedforward 50 [0 1000000 ffff0008 0] [energy 9999.273776 ei 0.118 es 0.000 et 0.000 er 0.608] ------- [4:0 4:255 0 0] 
r 15.583948987 _5_ MAC  --- 8 vectorbasedforward 50 [0 1000000 ffff0008 0] [energy 9999.029804 ei 0.118 es 0.000 et 0.400 er 0.452] ------- [4:0 4:255 0 0] 
r 15.602207679 _3_ MAC  --- 8 vectorbasedforward 50 [0 1000000 ffff0008 0] [energy 9999.067815 ei 0.118 es 0.000 et 0.320 er 0.494] ------- [4:0 4:255 0 0] 
s 15.934714013 _4_ MAC  --- 9 vectorbasedforward 50 [0 4000000 ffff0008 0] [energy 9999.059514 ei 0.118 es 0.000 et 0.320 er 0.503] ------- [5:0 5:255 0 0] 
r 15.991043944 _5_ MAC  --- 9 vectorbasedforward 50 [0 4000000 ffff0008 0] [energy 9998.996868 ei 0.121 es 0.000 et 0.400 er 0.482] ------- [5:0 5:255 0 0] 
N -t 16.000000 -n 0 -e 9999.240694
N -t 16.000000 -n 1 -e 9999.029623
N -t 16.000000 -n 2 -e 9999.027410
N -t 16.000000 -n 3 -e 9999.034805
N -t 16.000000 -n 4 -e 9998.976410
N -t 16.000000 -n 5 -e 9998.996796
r 16.005983451 _2_ MAC  --- 9 vectorbasedforward 50 [0 4000000 ffff0008 0] [energy 9999.027410 ei 0.121 es 0.000 et 0.320 er 0.531] ------- [5:0 5:255 0 0] 
r 16.005983451 _1_ MAC  --- 9 vectorbasedforward 50 [0 4000000 ffff0008 0] [energy 9999.029623 ei 0.121 es 0.000 et 0.320 er 0.529] ------- [5:0 5:255 0 0] 
r 16.005983451 _0_ MAC  --- 9 vectorbasedforward 50 [0 4000000 ffff0008 0] [energy 9999.240694 ei 0.121 es 0.000 et 0.000 er 0.638] ------- [5:0 5:255 0 0] 
r 16.018430270 _3_ MAC  --- 9 vectorbasedforward 50 [0 4000000 ffff0008 0] [energy 9999.034805 ei 0.121 es 0.000 et 0.320 er 0.524] ------- [5:0 5:255 0 0] 
N -t 17.000000 -n 0 -e 9999.232742
N -t 17.000000 -n 1 -e 9999.021671
N -t 17.000000 -n 2 -e 9999.019458
N -t 17.000000 -n 3 -e 9999.026952
N -t 17.000000 -n 4 -e 9998.968410
N -t 17.000000 -n 5 -e 9998.988796
N -t 18.000000 -n 0 -e 9999.224742
N -t 18.000000 -n 1 -e 9999.013671
N -t 18.000000 -n 2 -e 9999.011458
N -t 18.000000 -n 3 -e 9999.018952
N -t 18.000000 -n 4 -e 9998.960410
N -t 18.000000 -n 5 -e 9998.980796
N -t 19.000000 -n 0 -e 9999.216742
N -t 19.000000 -n 1 -e 9999.005671
N -t 19.000000 -n 2 -e 9999.003458
N -t 19.000000 -n 3 -e 9999.010952
N -t 19.000000 -n 4 -e 9998.952410
N -t 19.000000 -n 5 -e 9998.972796
N -t 20.000000 -n 0 -e 9999.208742
N -t 20.000000 -n 1 -e 9998.997671
N -t 20.000000 -n 2 -e 9998.995458
N -t 20.000000 -n 3 -e 9999.002952
N -t 20.000000 -n 4 -e 9998.944410
N -t 20.000000 -n 5 -e 9998.964796
N -t 21.000000 -n 0 -e 9999.200742
N -t 21.000000 -n 1 -e 9998.989671
N -t 21.000000 -n 2 -e 9998.987458
N -t 21.000000 -n 3 -e 9998.994952
N -t 21.000000 -n 4 -e 9998.936410
N -t 21.000000 -n 5 -e 9998.956796
s 21.330025000 _1_ MAC  --- 10 vectorbasedforward 50 [0 1000000 ffff0008 0] [energy 9998.989671 ei 0.161 es 0.000 et 0.320 er 0.529] ------- [1:0 1:255 0 0] 
r 21.401294438 _4_ MAC  --- 10 vectorbasedforward 50 [0 1000000 ffff0008 0] [energy 9998.903520 ei 0.164 es 0.000 et 0.400 er 0.533] ------- [1:0 1:255 0 0] 
r 21.404018463 _2_ MAC  --- 10 vectorbasedforward 50 [0 1000000 ffff0008 0] [energy 9998.954545 ei 0.164 es 0.000 et 0.320 er 0.561] ------- [1:0 1:255 0 0] 
r 21.410025000 _0_ MAC  --- 10 vectorbasedforward 50 [0 1000000 ffff0008 0] [energy 9999.167782 ei 0.164 es 0.000 et 0.000 er 0.668] ------- [1:0 1:255 0 0] 
r 21.413229938 _5_ MAC  --- 10 vectorbasedforward 50 [0 1000000 ffff0008 0] [energy 9998.923810 ei 0.164 es 0.000 et 0.400 er 0.512] ------- [1:0 1:255 0 0] 
r 21.431488630 _3_ MAC  --- 10 vectorbasedforward 50 [0 1000000 ffff0008 0] [energy 9998.961820 ei 0.164 es 0.000 et 0.320 er 0.554] ------- [1:0 1:255 0 0] 
s 21.830025000 _2_ MAC  --- 11 vectorbasedforward 50 [0 2000000 ffff0008 0] [energy 9998.954545 ei 0.164 es 0.000 et 0.320 er 0.561] ------- [2:0 2:255 0 0] 
r 21.901294438 _4_ MAC  --- 11 vectorbasedforward 50 [0 2000000 ffff0008 0] [energy 9998.869840 ei 0.168 es 0.000 et 0.400 er 0.563] ------- [2:0 2:255 0 0] 
r 21.904018463 _1_ MAC  --- 11 vectorbasedforward 50 [0 2000000 ffff0008 0] [energy 9998.873079 ei 0.168 es 0.000 et 0.400 er 0.559] ------- [2:0 2:255 0 0] 
r 21.905926099 _3_ MAC  --- 11 vectorbasedforward 50 [0 2000000 ffff0008 0] [energy 9998.928345 ei 0.168 es 0.000 et 0.320 er 0.584] ------- [2:0 2:255 0 0] 
r 21.916213022 _5_ MAC  --- 11 vectorbasedforward 50 [0 2000000 ffff0008 0] [energy 9998.890106 ei 0.168 es 0.000 et 0.400 er 0.542] ------- [2:0 2:255 0 0] 
r 21.917165452 _0_ MAC  --- 11 vectorbasedforward 50 [0 2000000 ffff0008 0] [energy 9999.134045 ei 0.168 es 0.000 et 0.000 er 0.698] ------- [2:0 2:255 0 0] 
N -t 22.000000 -n 0 -e 9999.133382
N -t 22.000000 -n 1 -e 9998.872311
N -t 22.000000 -n 2 -e 9998.870098
N -t 22.000000 -n 3 -e 9998.927592
N -t 22.000000 -n 4 -e 9998.869050
N -t 22.000000 -n 5 -e 9998.889436
s 22.330025000 _3_ MAC  --- 12 vectorbasedforward 50 [0 3000000 ffff0008 0] [energy 9998.927592 ei 0.168 es 0.000 et 0.320 er 0.584] ------- [3:0 3:255 0 0] 
r 22.405926099 _2_ MAC  --- 12 vectorbasedforward 50 [0 3000000 ffff0008 0] [energy 9998.837170 ei 0.171 es 0.000 et 0.400 er 0.591] ------- [3:0 3:255 0 0] 
r 22.413741257 _4_ MAC  --- 12 vectorbasedforward 50 [0 3000000 ffff0008 0] [energy 9998.836060 ei 0.171 es 0.000 et 0.400 er 0.593] ------- [3:0 3:255 0 0] 
r 22.416691667 _0_ MAC  --- 12 vectorbasedforward 50 [0 3000000 ffff0008 0] [energy 9999.100369 ei 0.172 es 0.000 et 0.000 er 0.728] ------- [3:0 3:255 0 0] 
r 22.418559066 _5_ MAC  --- 12 vectorbasedforward 50 [0 3000000 ffff0008 0] [energy 9998.856408 ei 0.172 es 0.000 et 0.400 er 0.572] ------- [3:0 3:255 0 0] 
r 22.431488630 _1_ MAC  --- 12 vectorbasedforward 50 [0 3000000 ffff0008 0] [energy 9998.839179 ei 0.172 es 0.000 et 0.400 er 0.589] ------- [3:0 3:255 0 0] 
s 22.830025000 _4_ MAC  --- 13 vectorbasedforward 50 [0 4000000 ffff0008 0] [energy 9998.836060 ei 0.171 es 0.000 et 0.400 er 0.593] ------- [4:0 4:255 0 0] 
r 22.886354932 _5_ MAC  --- 13 vectorbasedforward 50 [0 4000000 ffff0008 0] [energy 9998.822985 ei 0.175 es 0.000 et 0.400 er 0.602] ------- [4:0 4:255 0 0] 
r 22.901294438 _2_ MAC  --- 13 vectorbasedforward 50 [0 4000000 ffff0008 0] [energy 9998.803527 ei 0.175 es 0.000 et 0.400 er 0.621] ------- [4:0 4:255 0 0] 
r 22.901294438 _1_ MAC  --- 13 vectorbasedforward 50 [0 4000000 ffff0008 0] [energy 9998.805741 ei 0.175 es 0.000 et 0.400 er 0.619] ------- [4:0 4:255 0 0] 
r 22.901294438 _0_ MAC  --- 13 vectorbasedforward 50 [0 4000000 ffff0008 0] [energy 9999.066812 ei 0.175 es 0.000 et 0.000 er 0.758] ------- [4:0 4:255 0 0] 
r 22.913741257 _3_ MAC  --- 13 vectorbasedforward 50 [0 4000000 ffff0008 0] [energy 9998.810922 ei 0.175 es 0.000 et 0.400 er 0.614] ------- [4:0 4:255 0 0] 
N -t 23.000000 -n 0 -e 9999.066022
N -t 23.000000 -n 1 -e 9998.804951
N -t 23.000000 -n 2 -e 9998.802738
N -t 23.000000 -n 3 -e 9998.810232
N -t 23.000000 -n 4 -e 9998.751690
N -t 23.000000 -n 5 -e 9998.822076
s 23.330025000 _5_ MAC  --- 14 vectorbasedforward 50 [0 5000000 ffff0008 0] [energy 9998.822076 ei 0.176 es 0.000 et 0.400 er 0.602] ------- [5:0 5:255 0 0] 
r 23.386354932 _4_ MAC  --- 14 vectorbasedforward 50 [0 5000000 ffff0008 0] [energy 9998.718919 ei 0.179 es 0.000 et 0.480 er 0.623] ------- [5:0 5:255 0 0] 
r 23.398309271 _0_ MAC  --- 14 vectorbasedforward 50 [0 5000000 ffff0008 0] [energy 9999.033156 ei 0.179 es 0.000 et 0.000 er 0.788] ------- [5:0 5:255 0 0] 
r 23.413229938 _1_ MAC  --- 14 vectorbasedforward 50 [0 5000000 ffff0008 0] [energy 9998.771965 ei 0.179 es 0.000 et 0.400 er 0.649] ------- [5:0 5:255 0 0] 